[1537848280.986507] [r8n3:32711:0]         sys.c:744  MXM  WARN  Conflicting CPU frequencies detected, using: 3359.71
[1537848280.990128] [r8n3:32711:0]         mxm.c:196  MXM  WARN  The 'ulimit -s' on the system is set to 'unlimited'. This may have negative performance implications. Please set the stack size to the default value (10240) 
[1537848280.991439] [r8n3:32711:0]         mxm.c:196  MXM  WARN  The 'ulimit -s' on the system is set to 'unlimited'. This may have negative performance implications. Please set the stack size to the default value (10240) 
 argument  1 = /storage/home/bikashp/nwchem_run/rabeet/bh38/bh6/nwtpssloc/TS1.nw
                                         
                                         


              Northwest Computational Chemistry Package (NWChem) 6.6
              ------------------------------------------------------


                    Environmental Molecular Sciences Laboratory
                       Pacific Northwest National Laboratory
                                Richland, WA 99352

                              Copyright (c) 1994-2015
                       Pacific Northwest National Laboratory
                            Battelle Memorial Institute

             NWChem is an open-source computational chemistry package
                        distributed under the terms of the
                      Educational Community License (ECL) 2.0
             A copy of the license is included with this distribution
                              in the LICENSE.TXT file

                                  ACKNOWLEDGMENT
                                  --------------

            This software and its documentation were developed at the
            EMSL at Pacific Northwest National Laboratory, a multiprogram
            national laboratory, operated for the U.S. Department of Energy
            by Battelle under Contract Number DE-AC05-76RL01830. Support
            for this work was provided by the Department of Energy Office
            of Biological and Environmental Research, Office of Basic
            Energy Sciences, and the Office of Advanced Scientific Computing.


           Job information
           ---------------

    hostname        = r8n3.niserhpc.org
    program         = /home/bikashp/Code/nwchem-6.6_tpssloc/bin/LINUX64/nwchem
    date            = Tue Sep 25 09:34:41 2018

    compiled        = Tue_Sep_18_16:24:59_2018
    source          = /home/bikashp/Code/nwchem-6.6_tpssloc
    nwchem branch   = 6.6
    nwchem revision = 27746
    ga revision     = 10594
    input           = /storage/home/bikashp/nwchem_run/rabeet/bh38/bh6/nwtpssloc/TS1.nw
    prefix          = TS1.
    data base       = ./TS1.db
    status          = startup
    nproc           =        1
    time left       =     -1s



           Memory information
           ------------------

    heap     =   13107196 doubles =    100.0 Mbytes
    stack    =   13107201 doubles =    100.0 Mbytes
    global   =   26214400 doubles =    200.0 Mbytes (distinct from heap & stack)
    total    =   52428797 doubles =    400.0 Mbytes
    verify   = yes
    hardfail = no 


           Directory information
           ---------------------

  0 permanent = .
  0 scratch   = .




                                NWChem Input Module
                                -------------------



 Scaling coordinates for geometry "geometry" by  1.889725989
 (inverse scale =  0.529177249)


          ------
          auto-z
          ------
  autoz: The atoms group into disjoint clusters
 cluster   1:    1    3    4    5    6
 cluster   2:    2    7
 Connecting clusters   1   2 via atoms    3    2 r = 1.28
  autoz: regenerating connections with new bonds


                             Geometry "geometry" -> ""
                             -------------------------

 Output coordinates in angstroms (scale by  1.889725989 to convert to a.u.)

  No.       Tag          Charge          X              Y              Z
 ---- ---------------- ---------- -------------- -------------- --------------
    1 C                    6.0000    -1.21149158     0.00796789     0.00041000
    2 O                    8.0000     1.29396842    -0.10869211     0.00013000
    3 H                    1.0000     0.00947842    -0.11802211     0.00280000
    4 H                    1.0000    -1.52553158    -0.23325211     1.01007000
    5 H                    1.0000    -1.43067158     1.03322789    -0.27808000
    6 H                    1.0000    -1.55271158    -0.71011211    -0.73770000
    7 H                    1.0000     1.41663842     0.84988789    -0.00059000

      Atomic Mass 
      ----------- 

      C                 12.000000
      O                 15.994910
      H                  1.007825


 Effective nuclear repulsion energy (a.u.)      37.1188244386

            Nuclear Dipole moment (a.u.) 
            ----------------------------
        X                 Y               Z
 ---------------- ---------------- ----------------
    -0.0000000000    -0.0000000000     0.0000000000



                                Z-matrix (autoz)
                                -------- 

 Units are Angstrom for bonds and degrees for angles

      Type          Name      I     J     K     L     M      Value
      ----------- --------  ----- ----- ----- ----- ----- ----------
    1 Stretch                  1     3                       1.22746
    2 Stretch                  1     4                       1.08454
    3 Stretch                  1     5                       1.08478
    4 Stretch                  1     6                       1.08484
    5 Stretch                  2     3                       1.28453
    6 Stretch                  2     7                       0.96640
    7 Bend                     1     3     2               173.68821
    8 Bend                     3     2     7                97.70877
    9 Bend                     3     1     4               105.27125
   10 Bend                     3     1     5               107.36711
   11 Bend                     3     1     6               104.25607
   12 Bend                     4     1     5               112.99850
   13 Bend                     4     1     6               113.27294
   14 Bend                     5     1     6               112.79152
   15 Torsion                  1     3     2     7           2.06499
   16 Torsion                  2     3     1     4        -107.17133
   17 Torsion                  2     3     1     5          13.47543
   18 Torsion                  2     3     1     6         133.35925


            XYZ format geometry
            -------------------
     7
 geometry
 C                    -1.21149158     0.00796789     0.00041000
 O                     1.29396842    -0.10869211     0.00013000
 H                     0.00947842    -0.11802211     0.00280000
 H                    -1.52553158    -0.23325211     1.01007000
 H                    -1.43067158     1.03322789    -0.27808000
 H                    -1.55271158    -0.71011211    -0.73770000
 H                     1.41663842     0.84988789    -0.00059000

 ==============================================================================
                                internuclear distances
 ------------------------------------------------------------------------------
       center one      |      center two      | atomic units |  angstroms
 ------------------------------------------------------------------------------
    4 H                |   1 C                |     2.04948  |     1.08454
    5 H                |   1 C                |     2.04994  |     1.08478
    6 H                |   1 C                |     2.05005  |     1.08484
    7 H                |   2 O                |     1.82623  |     0.96640
 ------------------------------------------------------------------------------
                         number of included internuclear distances:          4
 ==============================================================================



 ==============================================================================
                                 internuclear angles
 ------------------------------------------------------------------------------
        center 1       |       center 2       |       center 3       |  degrees
 ------------------------------------------------------------------------------
    4 H                |   1 C                |   5 H                |   113.00
    4 H                |   1 C                |   6 H                |   113.27
    5 H                |   1 C                |   6 H                |   112.79
 ------------------------------------------------------------------------------
                            number of included internuclear angles:          3
 ==============================================================================





 Summary of "ao basis" -> "" (cartesian)
 ------------------------------------------------------------------------------
       Tag                 Description            Shells   Functions and Types
 ---------------- ------------------------------  ------  ---------------------
 *                     6-311++G(3df,3pd)              on all atoms 



                                 NWChem DFT Module
                                 -----------------


                      Basis "ao basis" -> "ao basis" (cartesian)
                      -----
  C (Carbon)
  ----------
            Exponent  Coefficients 
       -------------- ---------------------------------------------------------
  1 S  4.56324000E+03  0.001967
  1 S  6.82024000E+02  0.015231
  1 S  1.54973000E+02  0.076127
  1 S  4.44553000E+01  0.260801
  1 S  1.30290000E+01  0.616462
  1 S  1.82773000E+00  0.221006

  2 S  2.09642000E+01  0.114660
  2 S  4.80331000E+00  0.919999
  2 S  1.45933000E+00 -0.003031

  3 P  2.09642000E+01  0.040249
  3 P  4.80331000E+00  0.237594
  3 P  1.45933000E+00  0.815854

  4 S  4.83456000E-01  1.000000

  5 P  4.83456000E-01  1.000000

  6 S  1.45585000E-01  1.000000

  7 P  1.45585000E-01  1.000000

  8 S  4.38000000E-02  1.000000

  9 P  4.38000000E-02  1.000000

 10 D  2.50400000E+00  1.000000

 11 D  6.26000000E-01  1.000000

 12 D  1.56500000E-01  1.000000

 13 F  8.00000000E-01  1.000000

  O (Oxygen)
  ----------
            Exponent  Coefficients 
       -------------- ---------------------------------------------------------
  1 S  8.58850000E+03  0.001895
  1 S  1.29723000E+03  0.014386
  1 S  2.99296000E+02  0.070732
  1 S  8.73771000E+01  0.240001
  1 S  2.56789000E+01  0.594797
  1 S  3.74004000E+00  0.280802

  2 S  4.21175000E+01  0.113889
  2 S  9.62837000E+00  0.920811
  2 S  2.85332000E+00 -0.003274

  3 P  4.21175000E+01  0.036511
  3 P  9.62837000E+00  0.237153
  3 P  2.85332000E+00  0.819702

  4 S  9.05661000E-01  1.000000

  5 P  9.05661000E-01  1.000000

  6 S  2.55611000E-01  1.000000

  7 P  2.55611000E-01  1.000000

  8 S  8.45000000E-02  1.000000

  9 P  8.45000000E-02  1.000000

 10 D  5.16000000E+00  1.000000

 11 D  1.29200000E+00  1.000000

 12 D  3.22500000E-01  1.000000

 13 F  1.40000000E+00  1.000000

  H (Hydrogen)
  ------------
            Exponent  Coefficients 
       -------------- ---------------------------------------------------------
  1 S  3.38650000E+01  0.025494
  1 S  5.09479000E+00  0.190373
  1 S  1.15879000E+00  0.852161

  2 S  3.25840000E-01  1.000000

  3 S  1.02741000E-01  1.000000

  4 S  3.60000000E-02  1.000000

  5 P  3.00000000E+00  1.000000

  6 P  7.50000000E-01  1.000000

  7 P  1.87500000E-01  1.000000

  8 D  1.00000000E+00  1.000000



 Summary of "ao basis" -> "ao basis" (cartesian)
 ------------------------------------------------------------------------------
       Tag                 Description            Shells   Functions and Types
 ---------------- ------------------------------  ------  ---------------------
 C                     6-311++G(3df,3pd)            13       45   5s4p3d1f
 O                     6-311++G(3df,3pd)            13       45   5s4p3d1f
 H                     6-311++G(3df,3pd)             8       19   4s3p1d




 Summary of "ao basis" -> "ao basis" (cartesian)
 ------------------------------------------------------------------------------
       Tag                 Description            Shells   Functions and Types
 ---------------- ------------------------------  ------  ---------------------
 C                     6-311++G(3df,3pd)            13       45   5s4p3d1f
 O                     6-311++G(3df,3pd)            13       45   5s4p3d1f
 H                     6-311++G(3df,3pd)             8       19   4s3p1d


  Caching 1-el integrals 

            General Information
            -------------------
          SCF calculation type: DFT
          Wavefunction type:  spin polarized.
          No. of atoms     :     7
          No. of electrons :    19
           Alpha electrons :    10
            Beta electrons :     9
          Charge           :     0
          Spin multiplicity:     2
          Use of symmetry is: off; symmetry adaption is: off
          Maximum number of iterations: ***
          AO basis - number of functions:   185
                     number of shells:    66
          Convergence on energy requested: 1.00D-06
          Convergence on density requested: 1.00D-05
          Convergence on gradient requested: 5.00D-04

              XC Information
              --------------
                  TPSS metaGGA Exchange Functional  1.000          
             TPSS03 metaGGA Correlation Functional  1.000          

             Grid Information
             ----------------
          Grid used for XC integration:  medium    
          Radial quadrature: Mura-Knowles        
          Angular quadrature: Lebedev. 
          Tag              B.-S. Rad. Rad. Pts. Rad. Cut. Ang. Pts.
          ---              ---------- --------- --------- ---------
          C                   0.70       49          13.0       434
          O                   0.60       49          12.0       434
          H                   0.35       45          13.0       434
          Grid pruning is: on 
          Number of quadrature shells:   323
          Spatial weights used:  Erf1

          Convergence Information
          -----------------------
          Convergence aids based upon iterative change in 
          total energy or number of iterations. 
          Levelshifting, if invoked, occurs when the 
          HOMO/LUMO gap drops below (HL_TOL): 1.00D-02
          DIIS, if invoked, will attempt to extrapolate 
          using up to (NFOCK): 10 stored Fock matrices.

                    Damping( 0%)  Levelshifting(0.5)       DIIS
                  --------------- ------------------- ---------------
          dE  on:    start            ASAP                start   
          dE off:    2 iters        *** iters           *** iters 


      Screening Tolerance Information
      -------------------------------
          Density screening/tol_rho: 1.00D-10
          AO Gaussian exp screening on grid/accAOfunc:  14
          CD Gaussian exp screening on grid/accCDfunc:  20
          XC Gaussian exp screening on grid/accXCfunc:  20
          Schwarz screening/accCoul: 1.00D-08


      Superposition of Atomic Density Guess
      -------------------------------------

 Sum of atomic energies:        -114.94599442

      Non-variational initial energy
      ------------------------------

 Total energy =    -115.526908
 1-e energy   =    -228.864568
 2-e energy   =      76.218836
 HOMO         =      -0.297576
 LUMO         =       0.022388

   Time after variat. SCF:      1.0
   Time prior to 1st pass:      1.0

 Integral file          = ./TS1.aoints.0
 Record size in doubles =    65536    No. of integs per rec  =    43688
 Max. records in memory =        0    Max. records in file   = ********
 No. of bits per label  =        8    No. of bits per value  =       64


 #quartets = 2.157D+06 #integrals = 1.032D+08 #direct =  0.0% #cached =100.0%


 Grid_pts file          = ./TS1.gridpts.0
 Record size in doubles =  12289        No. of grid_pts per rec  =   3070
 Max. records in memory =     52        Max. recs in file   = 995474298


           Memory utilization after 1st SCF pass: 
           Heap Space remaining (MW):       12.46            12463300
          Stack Space remaining (MW):       13.11            13105484

   convergence    iter        energy       DeltaE   RMS-Dens  Diis-err    time
 ---------------- ----- ----------------- --------- --------- ---------  ------
 d= 0,ls=0.0,diis     1   -116.2443900336 -1.53D+02  4.34D-03  2.32D-01    15.7
                                                     4.11D-03  2.46D-01
 d= 0,ls=0.0,diis     2   -115.9650118122  2.79D-01  2.11D-03  7.79D-01    23.2
                                                     2.57D-03  6.26D-01
 d= 0,ls=0.0,diis     3   -116.2688663703 -3.04D-01  6.66D-04  4.03D-02    30.8
                                                     8.05D-04  4.07D-02
 d= 0,ls=0.0,diis     4   -116.2826687288 -1.38D-02  2.08D-04  4.06D-03    38.3
                                                     2.18D-04  3.78D-03
 d= 0,ls=0.0,diis     5   -116.2784128841  4.26D-03  1.09D-04  6.19D-04    46.1
                                                     1.38D-04  5.11D-04
  Resetting Diis
 d= 0,ls=0.0,diis     6   -116.2799588137 -1.55D-03  2.44D-05  3.96D-05    53.8
                                                     2.31D-05  3.61D-05
 d= 0,ls=0.0,diis     7   -116.2798383933  1.20D-04  1.20D-05  2.58D-06    61.6
                                                     1.20D-05  1.94D-06
 d= 0,ls=0.0,diis     8   -116.2800062128 -1.68D-04  6.42D-06  9.76D-06    69.4
                                                     8.55D-06  9.13D-06
 d= 0,ls=0.0,diis     9   -116.2799103135  9.59D-05  1.68D-06  2.79D-07    77.2
                                                     2.37D-06  2.75D-07
 d= 0,ls=0.0,diis    10   -116.2798985937  1.17D-05  9.16D-07  2.90D-08    85.0
                                                     8.20D-07  1.86D-08
 d= 0,ls=0.0,diis    11   -116.2799073488 -8.76D-06  2.50D-07  5.11D-09    92.7
                                                     3.56D-07  6.72D-09
 d= 0,ls=0.0,diis    12   -116.2799024782  4.87D-06  9.57D-08  3.52D-10   100.5
                                                     6.01D-08  2.04D-10
 d= 0,ls=0.0,diis    13   -116.2799035710 -1.09D-06  2.40D-08  2.15D-11   108.3
                                                     2.82D-08  2.20D-11
 d= 0,ls=0.0,diis    14   -116.2799034697  1.01D-07  1.35D-08  3.71D-12   116.1
                                                     9.28D-09  2.79D-12


         Total DFT energy =     -116.279903469658
      One electron energy =     -230.509365001131
           Coulomb energy =       92.786042282198
          Exchange energy =      -15.074985139769
       Correlation energy =       -0.600420049580
 Nuclear repulsion energy =       37.118824438624

 Numeric. integr. density =       19.000000568452

     Total iterative time =    115.1s



                    DFT Final Alpha Molecular Orbital Analysis
                    ------------------------------------------

 Vector    1  Occ=1.000000D+00  E=-1.898292D+01
              MO Center=  1.3D+00, -1.1D-01,  1.3D-04, r^2= 1.5D-02
   Bfn.  Coefficient  Atom+Function         Bfn.  Coefficient  Atom+Function  
  ----- ------------  ---------------      ----- ------------  ---------------
    46      0.550599  2 O  s                 47      0.471008  2 O  s          

 Vector    2  Occ=1.000000D+00  E=-1.008452D+01
              MO Center= -1.2D+00,  8.0D-03,  4.1D-04, r^2= 2.8D-02
   Bfn.  Coefficient  Atom+Function         Bfn.  Coefficient  Atom+Function  
  ----- ------------  ---------------      ----- ------------  ---------------
     1      0.561894  1 C  s                  2      0.465865  1 C  s          

 Vector    3  Occ=1.000000D+00  E=-9.793796D-01
              MO Center=  1.2D+00,  7.6D-02,  1.3D-04, r^2= 5.4D-01
   Bfn.  Coefficient  Atom+Function         Bfn.  Coefficient  Atom+Function  
  ----- ------------  ---------------      ----- ------------  ---------------
    55      0.654627  2 O  s                 51      0.550520  2 O  s          
    47     -0.207002  2 O  s          

 Vector    4  Occ=1.000000D+00  E=-7.285517D-01
              MO Center= -1.1D+00,  7.4D-03, -1.2D-03, r^2= 1.2D+00
   Bfn.  Coefficient  Atom+Function         Bfn.  Coefficient  Atom+Function  
  ----- ------------  ---------------      ----- ------------  ---------------
    10      0.531291  1 C  s                  6      0.376942  1 C  s          
     2     -0.185817  1 C  s          

 Vector    5  Occ=1.000000D+00  E=-5.086036D-01
              MO Center=  4.5D-01,  9.4D-03, -7.5D-04, r^2= 2.0D+00
   Bfn.  Coefficient  Atom+Function         Bfn.  Coefficient  Atom+Function  
  ----- ------------  ---------------      ----- ------------  ---------------
    10      0.325956  1 C  s                 56      0.310358  2 O  px         
    57      0.222927  2 O  py                52      0.219755  2 O  px         
   101      0.205314  3 H  px                53      0.174672  2 O  py         
    48      0.168929  2 O  px         

 Vector    6  Occ=1.000000D+00  E=-4.528013D-01
              MO Center= -3.8D-02, -2.8D-02, -6.1D-02, r^2= 2.7D+00
   Bfn.  Coefficient  Atom+Function         Bfn.  Coefficient  Atom+Function  
  ----- ------------  ---------------      ----- ------------  ---------------
    55      0.245905  2 O  s                 57     -0.244216  2 O  py         
    53     -0.191516  2 O  py                12     -0.182570  1 C  py         
     8     -0.168635  1 C  py                56      0.164797  2 O  px         
    49     -0.152240  2 O  py         

 Vector    7  Occ=1.000000D+00  E=-4.448252D-01
              MO Center= -1.3D+00, -1.4D-01,  1.5D-01, r^2= 1.3D+00
   Bfn.  Coefficient  Atom+Function         Bfn.  Coefficient  Atom+Function  
  ----- ------------  ---------------      ----- ------------  ---------------
     9      0.270562  1 C  pz                13      0.262113  1 C  pz         
   111      0.232937  4 H  s                  5      0.207550  1 C  pz         
   149     -0.179885  6 H  s          

 Vector    8  Occ=1.000000D+00  E=-4.369491D-01
              MO Center= -2.6D-01,  1.2D-01, -9.0D-02, r^2= 2.8D+00
   Bfn.  Coefficient  Atom+Function         Bfn.  Coefficient  Atom+Function  
  ----- ------------  ---------------      ----- ------------  ---------------
    57      0.238387  2 O  py                55     -0.222426  2 O  s          
     8     -0.208810  1 C  py               130     -0.204621  5 H  s          
    53      0.199958  2 O  py                12     -0.172999  1 C  py         
     4     -0.160792  1 C  py                49      0.157800  2 O  py         

 Vector    9  Occ=1.000000D+00  E=-3.327813D-01
              MO Center=  1.2D+00, -7.1D-02,  2.5D-03, r^2= 8.1D-01
   Bfn.  Coefficient  Atom+Function         Bfn.  Coefficient  Atom+Function  
  ----- ------------  ---------------      ----- ------------  ---------------
    58      0.452330  2 O  pz                54      0.394195  2 O  pz         
    50      0.300807  2 O  pz         

 Vector   10  Occ=1.000000D+00  E=-3.150927D-01
              MO Center=  1.6D-02, -4.6D-02,  4.8D-04, r^2= 2.4D+00
   Bfn.  Coefficient  Atom+Function         Bfn.  Coefficient  Atom+Function  
  ----- ------------  ---------------      ----- ------------  ---------------
    11      0.466928  1 C  px                56      0.372550  2 O  px         
    93     -0.312622  3 H  s                 52      0.308240  2 O  px         
     7      0.281718  1 C  px                48      0.231218  2 O  px         
     3      0.197294  1 C  px                10      0.187970  1 C  s          

 Vector   11  Occ=0.000000D+00  E=-3.816351D-02
              MO Center= -1.5D-01,  7.9D-01, -2.4D-02, r^2= 8.3D+00
   Bfn.  Coefficient  Atom+Function         Bfn.  Coefficient  Atom+Function  
  ----- ------------  ---------------      ----- ------------  ---------------
    14      1.597337  1 C  s                132     -0.781963  5 H  s          
    10      0.579210  1 C  s                151     -0.577664  6 H  s          
   113     -0.508934  4 H  s                170     -0.505713  7 H  s          
   169     -0.427505  7 H  s                150     -0.328717  6 H  s          
    59      0.277102  2 O  s                131     -0.269830  5 H  s          

 Vector   12  Occ=0.000000D+00  E=-1.670148D-03
              MO Center= -4.0D-01,  3.8D-01,  5.8D-02, r^2= 1.2D+01
   Bfn.  Coefficient  Atom+Function         Bfn.  Coefficient  Atom+Function  
  ----- ------------  ---------------      ----- ------------  ---------------
    14      2.482659  1 C  s                113     -1.108013  4 H  s          
   170      1.029625  7 H  s                151     -0.988097  6 H  s          
    10      0.829393  1 C  s                 93     -0.749876  3 H  s          
    94     -0.565338  3 H  s                169      0.537873  7 H  s          
    59     -0.461885  2 O  s                132     -0.432887  5 H  s          

 Vector   13  Occ=0.000000D+00  E= 2.280154D-02
              MO Center= -1.5D+00,  1.2D+00, -1.1D-01, r^2= 1.0D+01
   Bfn.  Coefficient  Atom+Function         Bfn.  Coefficient  Atom+Function  
  ----- ------------  ---------------      ----- ------------  ---------------
   132      3.625077  5 H  s                113     -1.698255  4 H  s          
   151     -1.169718  6 H  s                 16     -1.074484  1 C  py         
    94     -0.748652  3 H  s                 17      0.330892  1 C  pz         
    59      0.282433  2 O  s                170     -0.201966  7 H  s          
   150     -0.191693  6 H  s                  8     -0.165641  1 C  py         

 Vector   14  Occ=0.000000D+00  E= 2.551301D-02
              MO Center= -1.8D+00, -9.5D-01,  9.2D-02, r^2= 1.0D+01
   Bfn.  Coefficient  Atom+Function         Bfn.  Coefficient  Atom+Function  
  ----- ------------  ---------------      ----- ------------  ---------------
   151     -3.024710  6 H  s                113      2.806172  4 H  s          
    17     -0.969795  1 C  pz                16     -0.377768  1 C  py         
   132      0.376649  5 H  s                 34     -0.211754  1 C  dyz        
    94     -0.209992  3 H  s                  9     -0.165792  1 C  pz         

 Vector   15  Occ=0.000000D+00  E= 4.577792D-02
              MO Center= -7.7D-01,  3.5D-01, -6.5D-02, r^2= 7.6D+00
   Bfn.  Coefficient  Atom+Function         Bfn.  Coefficient  Atom+Function  
  ----- ------------  ---------------      ----- ------------  ---------------
    94      2.479079  3 H  s                112      2.134625  4 H  s          
   151     -1.747791  6 H  s                 17     -1.715261  1 C  pz         
   150     -1.686776  6 H  s                 14     -1.664338  1 C  s          
   131      1.080722  5 H  s                 13     -1.047558  1 C  pz         
    16     -1.036520  1 C  py               113      0.676917  4 H  s          

 Vector   16  Occ=0.000000D+00  E= 4.789388D-02
              MO Center= -1.5D+00,  2.3D-01,  1.0D-01, r^2= 1.0D+01
   Bfn.  Coefficient  Atom+Function         Bfn.  Coefficient  Atom+Function  
  ----- ------------  ---------------      ----- ------------  ---------------
    93      3.492431  3 H  s                 14     -1.789632  1 C  s          
    15     -1.689291  1 C  px                11     -1.510238  1 C  px         
   150     -1.369365  6 H  s                170      1.018454  7 H  s          
   101     -0.989540  3 H  px                10     -0.882855  1 C  s          
   113      0.647786  4 H  s                 17     -0.588861  1 C  pz         

 Vector   17  Occ=0.000000D+00  E= 5.126415D-02
              MO Center= -7.4D-01, -7.0D-01, -2.4D-01, r^2= 6.7D+00
   Bfn.  Coefficient  Atom+Function         Bfn.  Coefficient  Atom+Function  
  ----- ------------  ---------------      ----- ------------  ---------------
    94      2.597080  3 H  s                131      2.368850  5 H  s          
    14     -1.924969  1 C  s                112     -1.686349  4 H  s          
    16     -1.415622  1 C  py               113     -1.296523  4 H  s          
    17      1.276705  1 C  pz                93      1.091431  3 H  s          
   132      1.039767  5 H  s                 12     -0.907076  1 C  py         

 Vector   18  Occ=0.000000D+00  E= 7.465955D-02
              MO Center=  2.6D-01, -8.2D-01,  2.3D-01, r^2= 1.2D+01
   Bfn.  Coefficient  Atom+Function         Bfn.  Coefficient  Atom+Function  
  ----- ------------  ---------------      ----- ------------  ---------------
    94     11.215482  3 H  s                 14     -8.661646  1 C  s          
    93      4.209912  3 H  s                 15     -2.687173  1 C  px         
   170     -2.573711  7 H  s                 10     -2.406950  1 C  s          
   150      2.065226  6 H  s                 16      1.644388  1 C  py         
    59     -1.451283  2 O  s                 11     -1.064100  1 C  px         

 Vector   19  Occ=0.000000D+00  E= 8.915170D-02
              MO Center= -6.9D-01,  8.6D-01, -2.0D-02, r^2= 1.6D+01
   Bfn.  Coefficient  Atom+Function         Bfn.  Coefficient  Atom+Function  
  ----- ------------  ---------------      ----- ------------  ---------------
    14     10.020709  1 C  s                132     -3.377841  5 H  s          
   151     -2.860929  6 H  s                113     -2.758423  4 H  s          
    94      2.622628  3 H  s                 10      2.596947  1 C  s          
   170     -1.668090  7 H  s                131     -1.548240  5 H  s          
   169      1.454450  7 H  s                150     -1.439837  6 H  s          

 Vector   20  Occ=0.000000D+00  E= 1.082674D-01
              MO Center=  3.8D-01,  3.8D-01,  3.6D-03, r^2= 1.4D+01
   Bfn.  Coefficient  Atom+Function         Bfn.  Coefficient  Atom+Function  
  ----- ------------  ---------------      ----- ------------  ---------------
    14      6.239043  1 C  s                169     -2.621162  7 H  s          
   151     -2.089493  6 H  s                113     -2.028511  4 H  s          
   170      2.000459  7 H  s                132     -1.638560  5 H  s          
    94     -0.868230  3 H  s                 59      0.830291  2 O  s          
    15     -0.702777  1 C  px               101      0.652203  3 H  px         

 Vector   21  Occ=0.000000D+00  E= 1.321041D-01
              MO Center= -1.4D+00, -3.9D-01,  2.6D-02, r^2= 1.0D+01
   Bfn.  Coefficient  Atom+Function         Bfn.  Coefficient  Atom+Function  
  ----- ------------  ---------------      ----- ------------  ---------------
   151      5.299133  6 H  s                113     -4.058610  4 H  s          
    17      2.864760  1 C  pz                16      1.425957  1 C  py         
    93      1.267725  3 H  s                132     -1.135859  5 H  s          
    59     -1.089919  2 O  s                 13     -0.795278  1 C  pz         
   112      0.762394  4 H  s                 10     -0.750375  1 C  s          

 Vector   22  Occ=0.000000D+00  E= 1.333338D-01
              MO Center= -1.7D+00,  6.4D-01, -7.3D-02, r^2= 1.2D+01
   Bfn.  Coefficient  Atom+Function         Bfn.  Coefficient  Atom+Function  
  ----- ------------  ---------------      ----- ------------  ---------------
   132      6.019494  5 H  s                113     -4.108993  4 H  s          
    16     -3.028012  1 C  py               151     -2.884467  6 H  s          
    93     -1.421363  3 H  s                131     -1.408576  5 H  s          
    94      1.392080  3 H  s                 17      1.370695  1 C  pz         
    12      1.086039  1 C  py                10      0.735160  1 C  s          

 Vector   23  Occ=0.000000D+00  E= 1.417591D-01
              MO Center= -4.9D-01, -3.4D-01,  3.0D-01, r^2= 8.3D+00
   Bfn.  Coefficient  Atom+Function         Bfn.  Coefficient  Atom+Function  
  ----- ------------  ---------------      ----- ------------  ---------------
   113      2.912319  4 H  s                151     -2.341592  6 H  s          
   150      1.339716  6 H  s                 59     -1.297439  2 O  s          
    17     -1.165385  1 C  pz                93      1.147196  3 H  s          
    14     -1.018225  1 C  s                112     -0.926407  4 H  s          
    94      0.839040  3 H  s                 10     -0.799408  1 C  s          

 Vector   24  Occ=0.000000D+00  E= 1.567023D-01
              MO Center= -1.6D-01,  3.2D-02, -1.8D-01, r^2= 5.9D+00
   Bfn.  Coefficient  Atom+Function         Bfn.  Coefficient  Atom+Function  
  ----- ------------  ---------------      ----- ------------  ---------------
    94      3.749064  3 H  s                169     -2.024155  7 H  s          
    93     -1.928856  3 H  s                 59      1.660261  2 O  s          
   113     -1.517040  4 H  s                131      1.276167  5 H  s          
   150     -1.193344  6 H  s                 10      1.068711  1 C  s          
    15     -1.066565  1 C  px                61      1.022521  2 O  py         

 Vector   25  Occ=0.000000D+00  E= 1.725359D-01
              MO Center=  3.3D-01,  6.9D-02, -1.7D-02, r^2= 8.5D+00
   Bfn.  Coefficient  Atom+Function         Bfn.  Coefficient  Atom+Function  
  ----- ------------  ---------------      ----- ------------  ---------------
    14     11.609950  1 C  s                 93     -8.062289  3 H  s          
    10      6.169800  1 C  s                 94     -5.949164  3 H  s          
    59      3.816852  2 O  s                131     -2.893865  5 H  s          
   112     -2.699525  4 H  s                150     -2.138809  6 H  s          
   169     -2.071731  7 H  s                 15      1.957216  1 C  px         

 Vector   26  Occ=0.000000D+00  E= 2.010697D-01
              MO Center=  1.2D+00, -6.7D-02, -5.2D-02, r^2= 9.3D+00
   Bfn.  Coefficient  Atom+Function         Bfn.  Coefficient  Atom+Function  
  ----- ------------  ---------------      ----- ------------  ---------------
    94      6.003389  3 H  s                 59     -4.164622  2 O  s          
   169      3.946050  7 H  s                 15     -2.485858  1 C  px         
    93     -2.468352  3 H  s                132     -2.347938  5 H  s          
    10      2.069465  1 C  s                 61     -1.731098  2 O  py         
   151     -1.690133  6 H  s                 60     -1.475232  2 O  px         

 Vector   27  Occ=0.000000D+00  E= 2.131065D-01
              MO Center=  5.4D-01, -1.1D-01, -6.4D-02, r^2= 6.4D+00
   Bfn.  Coefficient  Atom+Function         Bfn.  Coefficient  Atom+Function  
  ----- ------------  ---------------      ----- ------------  ---------------
    94      2.929146  3 H  s                112      2.335399  4 H  s          
   150     -1.793809  6 H  s                 13     -1.729004  1 C  pz         
    14     -1.398235  1 C  s                 15     -1.233307  1 C  px         
   113     -1.011894  4 H  s                 62     -0.916095  2 O  pz         
    60     -0.714302  2 O  px                93     -0.713764  3 H  s          

 Vector   28  Occ=0.000000D+00  E= 2.318965D-01
              MO Center= -6.8D-02,  1.2D-02,  9.1D-02, r^2= 8.6D+00
   Bfn.  Coefficient  Atom+Function         Bfn.  Coefficient  Atom+Function  
  ----- ------------  ---------------      ----- ------------  ---------------
    59      6.401330  2 O  s                169     -5.433842  7 H  s          
    94      4.049420  3 H  s                 61      3.166154  2 O  py         
    15     -2.277764  1 C  px               112     -2.284760  4 H  s          
    10      2.093293  1 C  s                131     -1.796376  5 H  s          
   113     -1.780288  4 H  s                 11     -1.332135  1 C  px         

 Vector   29  Occ=0.000000D+00  E= 2.466790D-01
              MO Center= -3.8D-01, -3.9D-01,  8.5D-02, r^2= 1.1D+01
   Bfn.  Coefficient  Atom+Function         Bfn.  Coefficient  Atom+Function  
  ----- ------------  ---------------      ----- ------------  ---------------
    14     15.387582  1 C  s                 94     -7.960521  3 H  s          
   131     -5.695448  5 H  s                112     -5.087408  4 H  s          
    93      4.500852  3 H  s                150     -4.518756  6 H  s          
    10      4.445563  1 C  s                 59     -2.973843  2 O  s          
    11     -2.907914  1 C  px               132     -2.182239  5 H  s          

 Vector   30  Occ=0.000000D+00  E= 2.575346D-01
              MO Center= -1.2D+00,  4.2D-01, -4.9D-01, r^2= 8.4D+00
   Bfn.  Coefficient  Atom+Function         Bfn.  Coefficient  Atom+Function  
  ----- ------------  ---------------      ----- ------------  ---------------
   150     -5.503335  6 H  s                112      5.395673  4 H  s          
    13     -3.471686  1 C  pz                17     -3.284234  1 C  pz         
    14      3.076150  1 C  s                131     -2.264510  5 H  s          
    34      1.499516  1 C  dyz              113      1.496570  4 H  s          
   151     -1.497119  6 H  s                 94     -1.220320  3 H  s          

 Vector   31  Occ=0.000000D+00  E= 2.608314D-01
              MO Center= -1.4D+00, -6.3D-01,  3.2D-01, r^2= 8.1D+00
   Bfn.  Coefficient  Atom+Function         Bfn.  Coefficient  Atom+Function  
  ----- ------------  ---------------      ----- ------------  ---------------
    14      6.918993  1 C  s                150     -6.179078  6 H  s          
   131      4.937578  5 H  s                112     -3.850602  4 H  s          
    12     -3.767778  1 C  py                94     -3.387321  3 H  s          
    16     -3.067955  1 C  py                10      2.590262  1 C  s          
    34      1.431414  1 C  dyz              151     -1.316144  6 H  s          

 Vector   32  Occ=0.000000D+00  E= 2.638434D-01
              MO Center= -5.0D-02,  7.6D-02,  7.4D-02, r^2= 1.0D+01
   Bfn.  Coefficient  Atom+Function         Bfn.  Coefficient  Atom+Function  
  ----- ------------  ---------------      ----- ------------  ---------------
    14     14.594784  1 C  s                 10      7.869619  1 C  s          
    93     -6.161824  3 H  s                131     -4.216601  5 H  s          
   112     -3.091726  4 H  s                 11      2.805491  1 C  px         
   101      2.790703  3 H  px                59     -2.578640  2 O  s          
   113     -2.319132  4 H  s                151     -2.180138  6 H  s          

 Vector   33  Occ=0.000000D+00  E= 3.153091D-01
              MO Center=  9.0D-01,  4.6D-01,  3.3D-02, r^2= 4.5D+00
   Bfn.  Coefficient  Atom+Function         Bfn.  Coefficient  Atom+Function  
  ----- ------------  ---------------      ----- ------------  ---------------
    14      2.003883  1 C  s                179     -1.268918  7 H  pz         
    34     -0.901071  1 C  dyz              132     -0.875899  5 H  s          
    62      0.787133  2 O  pz                32     -0.758090  1 C  dxz        
   131     -0.565027  5 H  s                 10      0.560227  1 C  s          
   150     -0.558298  6 H  s                151      0.560582  6 H  s          

 Vector   34  Occ=0.000000D+00  E= 3.188106D-01
              MO Center=  5.3D-01, -5.7D-01,  2.9D-02, r^2= 8.1D+00
   Bfn.  Coefficient  Atom+Function         Bfn.  Coefficient  Atom+Function  
  ----- ------------  ---------------      ----- ------------  ---------------
    93     19.312321  3 H  s                 59    -11.791257  2 O  s          
    94      8.942630  3 H  s                 11     -6.098206  1 C  px         
    10     -5.181362  1 C  s                 14     -4.623649  1 C  s          
    60      3.891632  2 O  px               101     -2.993964  3 H  px         
    15     -2.839164  1 C  px               131     -2.488000  5 H  s          

 Vector   35  Occ=0.000000D+00  E= 3.878168D-01
              MO Center=  6.4D-01,  3.9D-01, -5.9D-02, r^2= 6.8D+00
   Bfn.  Coefficient  Atom+Function         Bfn.  Coefficient  Atom+Function  
  ----- ------------  ---------------      ----- ------------  ---------------
   169      6.410778  7 H  s                 59     -3.287551  2 O  s          
    10      3.138002  1 C  s                150     -2.322392  6 H  s          
    61     -1.937775  2 O  py               178     -1.611197  7 H  py         
   112     -1.333773  4 H  s                 93     -1.256198  3 H  s          
    55     -1.123755  2 O  s                 35      0.985493  1 C  dzz        

 Vector   36  Occ=0.000000D+00  E= 4.306234D-01
              MO Center=  3.0D-01,  5.5D-01, -1.1D-01, r^2= 6.7D+00
   Bfn.  Coefficient  Atom+Function         Bfn.  Coefficient  Atom+Function  
  ----- ------------  ---------------      ----- ------------  ---------------
   169      6.661329  7 H  s                 93     -6.000748  3 H  s          
    10      5.314444  1 C  s                131     -3.788546  5 H  s          
    14      2.611637  1 C  s                112     -1.762840  4 H  s          
    61     -1.714906  2 O  py                59     -1.495184  2 O  s          
    12      1.384105  1 C  py               178     -1.389845  7 H  py         

 Vector   37  Occ=0.000000D+00  E= 4.325778D-01
              MO Center= -1.5D+00,  8.8D-02, -1.9D-02, r^2= 4.1D+00
   Bfn.  Coefficient  Atom+Function         Bfn.  Coefficient  Atom+Function  
  ----- ------------  ---------------      ----- ------------  ---------------
   141      1.136415  5 H  pz               121     -0.985464  4 H  py         
    10      0.855233  1 C  s                 93     -0.798544  3 H  s          
   160     -0.763230  6 H  pz               159      0.629411  6 H  py         
    14      0.495418  1 C  s                140      0.397315  5 H  py         
   131     -0.369946  5 H  s                150     -0.334179  6 H  s          

 Vector   38  Occ=0.000000D+00  E= 4.412348D-01
              MO Center= -1.6D+00,  1.5D-01, -7.4D-02, r^2= 6.5D+00
   Bfn.  Coefficient  Atom+Function         Bfn.  Coefficient  Atom+Function  
  ----- ------------  ---------------      ----- ------------  ---------------
    33      3.386991  1 C  dyy              131     -3.203488  5 H  s          
    35      3.046884  1 C  dzz              150     -2.833478  6 H  s          
    93     -2.756299  3 H  s                112     -2.647410  4 H  s          
    94     -2.514612  3 H  s                 30      1.994175  1 C  dxx        
    59      1.664922  2 O  s                132      1.621409  5 H  s          

 Vector   39  Occ=0.000000D+00  E= 4.523559D-01
              MO Center= -7.9D-01, -9.5D-02,  2.4D-01, r^2= 4.8D+00
   Bfn.  Coefficient  Atom+Function         Bfn.  Coefficient  Atom+Function  
  ----- ------------  ---------------      ----- ------------  ---------------
   169      2.664694  7 H  s                 10      2.345827  1 C  s          
    14      1.958104  1 C  s                 93     -1.417320  3 H  s          
    59     -1.389145  2 O  s                103     -1.129518  3 H  pz         
   131     -0.966931  5 H  s                120      0.945675  4 H  px         
    61     -0.921616  2 O  py                17     -0.863842  1 C  pz         

 Vector   40  Occ=0.000000D+00  E= 4.758067D-01
              MO Center= -1.4D+00, -2.2D-02, -2.6D-01, r^2= 6.4D+00
   Bfn.  Coefficient  Atom+Function         Bfn.  Coefficient  Atom+Function  
  ----- ------------  ---------------      ----- ------------  ---------------
   131      4.271113  5 H  s                150     -3.650949  6 H  s          
   151      3.379331  6 H  s                112      3.032684  4 H  s          
    12     -2.734848  1 C  py                10     -2.716563  1 C  s          
    14     -2.631791  1 C  s                 13     -2.280138  1 C  pz         
   132     -2.198627  5 H  s                169      2.052506  7 H  s          

 Vector   41  Occ=0.000000D+00  E= 4.825885D-01
              MO Center= -1.4D+00,  1.2D-01,  4.5D-01, r^2= 6.5D+00
   Bfn.  Coefficient  Atom+Function         Bfn.  Coefficient  Atom+Function  
  ----- ------------  ---------------      ----- ------------  ---------------
   112      5.426953  4 H  s                131     -5.395694  5 H  s          
    13     -4.113107  1 C  pz               113     -3.648349  4 H  s          
    10      2.919161  1 C  s                150     -2.632065  6 H  s          
    14      2.582507  1 C  s                132      2.053773  5 H  s          
    12      1.998865  1 C  py                93     -1.627825  3 H  s          

 Vector   42  Occ=0.000000D+00  E= 4.899457D-01
              MO Center= -7.6D-01, -1.1D-01, -5.4D-02, r^2= 7.0D+00
   Bfn.  Coefficient  Atom+Function         Bfn.  Coefficient  Atom+Function  
  ----- ------------  ---------------      ----- ------------  ---------------
    10     19.023007  1 C  s                 14     17.343733  1 C  s          
    93    -12.342556  3 H  s                150     -8.227410  6 H  s          
   112     -7.319616  4 H  s                 59      4.929383  2 O  s          
   101      4.861589  3 H  px                94     -4.107192  3 H  s          
   131     -4.117859  5 H  s                169     -3.987421  7 H  s          

 Vector   43  Occ=0.000000D+00  E= 4.930807D-01
              MO Center= -1.1D+00, -5.6D-02, -2.1D-01, r^2= 5.6D+00
   Bfn.  Coefficient  Atom+Function         Bfn.  Coefficient  Atom+Function  
  ----- ------------  ---------------      ----- ------------  ---------------
    93      6.229757  3 H  s                150     -5.051678  6 H  s          
    11     -4.877024  1 C  px               101     -4.197127  3 H  px         
    10     -2.625213  1 C  s                 94     -2.587476  3 H  s          
    14      1.977296  1 C  s                151      1.838983  6 H  s          
    55      1.717186  2 O  s                169     -1.715258  7 H  s          

 Vector   44  Occ=0.000000D+00  E= 4.972231D-01
              MO Center= -1.1D+00,  7.4D-03, -2.6D-02, r^2= 5.5D+00
   Bfn.  Coefficient  Atom+Function         Bfn.  Coefficient  Atom+Function  
  ----- ------------  ---------------      ----- ------------  ---------------
    14      9.191086  1 C  s                131     -5.768276  5 H  s          
   112     -4.627737  4 H  s                 94     -4.345724  3 H  s          
    10      4.089978  1 C  s                 93      3.633249  3 H  s          
    11     -3.354935  1 C  px                59     -2.757348  2 O  s          
   150     -2.630133  6 H  s                 12      2.022404  1 C  py         

 Vector   45  Occ=0.000000D+00  E= 5.114045D-01
              MO Center= -8.8D-01,  2.1D-01,  1.2D-01, r^2= 5.0D+00
   Bfn.  Coefficient  Atom+Function         Bfn.  Coefficient  Atom+Function  
  ----- ------------  ---------------      ----- ------------  ---------------
    32      3.447942  1 C  dxz               93     -2.370082  3 H  s          
    31      2.228124  1 C  dxy               34      1.962133  1 C  dyz        
    59      1.538228  2 O  s                103     -1.468966  3 H  pz         
   158      1.323108  6 H  px                10      1.264060  1 C  s          
   120     -1.050158  4 H  px                11      0.978532  1 C  px         


                     DFT Final Beta Molecular Orbital Analysis
                     -----------------------------------------

 Vector    1  Occ=1.000000D+00  E=-1.896854D+01
              MO Center=  1.3D+00, -1.1D-01,  1.3D-04, r^2= 1.5D-02
   Bfn.  Coefficient  Atom+Function         Bfn.  Coefficient  Atom+Function  
  ----- ------------  ---------------      ----- ------------  ---------------
    46      0.550973  2 O  s                 47      0.470801  2 O  s          

 Vector    2  Occ=1.000000D+00  E=-1.007668D+01
              MO Center= -1.2D+00,  8.0D-03,  4.1D-04, r^2= 2.8D-02
   Bfn.  Coefficient  Atom+Function         Bfn.  Coefficient  Atom+Function  
  ----- ------------  ---------------      ----- ------------  ---------------
     1      0.562216  1 C  s                  2      0.465806  1 C  s          

 Vector    3  Occ=1.000000D+00  E=-9.511848D-01
              MO Center=  1.2D+00,  8.8D-02,  1.3D-04, r^2= 5.6D-01
   Bfn.  Coefficient  Atom+Function         Bfn.  Coefficient  Atom+Function  
  ----- ------------  ---------------      ----- ------------  ---------------
    55      0.649790  2 O  s                 51      0.526706  2 O  s          
    47     -0.201671  2 O  s          

 Vector    4  Occ=1.000000D+00  E=-7.099393D-01
              MO Center= -1.2D+00,  1.2D-02, -1.4D-03, r^2= 1.2D+00
   Bfn.  Coefficient  Atom+Function         Bfn.  Coefficient  Atom+Function  
  ----- ------------  ---------------      ----- ------------  ---------------
    10      0.511950  1 C  s                  6      0.345488  1 C  s          
     2     -0.179599  1 C  s          

 Vector    5  Occ=1.000000D+00  E=-4.880754D-01
              MO Center=  6.3D-01,  1.9D-02, -3.4D-03, r^2= 1.8D+00
   Bfn.  Coefficient  Atom+Function         Bfn.  Coefficient  Atom+Function  
  ----- ------------  ---------------      ----- ------------  ---------------
    57      0.292588  2 O  py                10      0.289246  1 C  s          
    56      0.234502  2 O  px                53      0.230416  2 O  py         
    49      0.180353  2 O  py               101      0.160409  3 H  px         
    92     -0.154373  3 H  s          

 Vector    6  Occ=1.000000D+00  E=-4.420466D-01
              MO Center= -1.2D+00,  1.5D-01,  1.8D-02, r^2= 1.6D+00
   Bfn.  Coefficient  Atom+Function         Bfn.  Coefficient  Atom+Function  
  ----- ------------  ---------------      ----- ------------  ---------------
     8      0.225729  1 C  py                12      0.225299  1 C  py         
   130      0.220783  5 H  s                  4      0.177900  1 C  py         

 Vector    7  Occ=1.000000D+00  E=-4.415432D-01
              MO Center= -1.3D+00, -2.1D-01, -1.4D-03, r^2= 1.3D+00
   Bfn.  Coefficient  Atom+Function         Bfn.  Coefficient  Atom+Function  
  ----- ------------  ---------------      ----- ------------  ---------------
     9      0.244805  1 C  pz                13      0.241966  1 C  pz         
   149     -0.233381  6 H  s                111      0.203158  4 H  s          
     5      0.191904  1 C  pz         

 Vector    8  Occ=1.000000D+00  E=-4.206756D-01
              MO Center=  5.7D-01, -8.5D-03, -1.5D-02, r^2= 2.2D+00
   Bfn.  Coefficient  Atom+Function         Bfn.  Coefficient  Atom+Function  
  ----- ------------  ---------------      ----- ------------  ---------------
    55      0.326688  2 O  s                 57     -0.273920  2 O  py         
    56      0.237941  2 O  px                10      0.229274  1 C  s          
    53     -0.220840  2 O  py               101      0.208938  3 H  px         
    49     -0.178388  2 O  py                51      0.159624  2 O  s          

 Vector    9  Occ=1.000000D+00  E=-3.260772D-01
              MO Center=  1.2D+00, -7.0D-02,  2.4D-03, r^2= 8.2D-01
   Bfn.  Coefficient  Atom+Function         Bfn.  Coefficient  Atom+Function  
  ----- ------------  ---------------      ----- ------------  ---------------
    58      0.455664  2 O  pz                54      0.386605  2 O  pz         
    50      0.299305  2 O  pz         

 Vector   10  Occ=0.000000D+00  E=-2.431413D-01
              MO Center=  1.4D-01, -4.7D-02,  4.6D-04, r^2= 2.5D+00
   Bfn.  Coefficient  Atom+Function         Bfn.  Coefficient  Atom+Function  
  ----- ------------  ---------------      ----- ------------  ---------------
    11      0.471762  1 C  px                56      0.409175  2 O  px         
    52      0.289899  2 O  px                93     -0.287096  3 H  s          
    48      0.232891  2 O  px                 7      0.227410  1 C  px         
    10      0.185176  1 C  s                  3      0.181821  1 C  px         

 Vector   11  Occ=0.000000D+00  E=-3.363167D-02
              MO Center= -1.7D-01,  8.3D-01, -2.7D-02, r^2= 8.6D+00
   Bfn.  Coefficient  Atom+Function         Bfn.  Coefficient  Atom+Function  
  ----- ------------  ---------------      ----- ------------  ---------------
    14      1.737410  1 C  s                132     -0.860861  5 H  s          
   151     -0.618987  6 H  s                 10      0.573049  1 C  s          
   113     -0.548135  4 H  s                170     -0.527268  7 H  s          
   169     -0.423068  7 H  s                150     -0.349011  6 H  s          
   131     -0.279525  5 H  s                 59      0.258550  2 O  s          

 Vector   12  Occ=0.000000D+00  E= 3.541730D-03
              MO Center= -4.0D-01,  3.1D-01,  6.9D-02, r^2= 1.2D+01
   Bfn.  Coefficient  Atom+Function         Bfn.  Coefficient  Atom+Function  
  ----- ------------  ---------------      ----- ------------  ---------------
    14      2.819741  1 C  s                113     -1.239847  4 H  s          
   151     -1.104952  6 H  s                170      1.085473  7 H  s          
    10      0.946923  1 C  s                 93     -0.899312  3 H  s          
    94     -0.697631  3 H  s                169      0.553522  7 H  s          
    59     -0.425816  2 O  s                132     -0.361061  5 H  s          

 Vector   13  Occ=0.000000D+00  E= 2.549862D-02
              MO Center= -1.5D+00,  1.2D+00, -3.3D-02, r^2= 1.0D+01
   Bfn.  Coefficient  Atom+Function         Bfn.  Coefficient  Atom+Function  
  ----- ------------  ---------------      ----- ------------  ---------------
   132      3.703837  5 H  s                113     -1.799009  4 H  s          
    16     -1.057958  1 C  py               151     -0.975873  6 H  s          
    94     -0.816477  3 H  s                 17      0.351471  1 C  pz         
    59      0.337242  2 O  s                170     -0.259177  7 H  s          
   150     -0.185159  6 H  s                 55      0.160056  2 O  s          

 Vector   14  Occ=0.000000D+00  E= 2.789601D-02
              MO Center= -1.8D+00, -9.4D-01,  6.1D-04, r^2= 1.1D+01
   Bfn.  Coefficient  Atom+Function         Bfn.  Coefficient  Atom+Function  
  ----- ------------  ---------------      ----- ------------  ---------------
   151      3.090450  6 H  s                113     -2.745067  4 H  s          
    17      0.901526  1 C  pz               132     -0.601437  5 H  s          
    16      0.422189  1 C  py                94      0.340816  3 H  s          
   112      0.220233  4 H  s                 34      0.211071  1 C  dyz        
   150     -0.156954  6 H  s          

 Vector   15  Occ=0.000000D+00  E= 4.787419D-02
              MO Center= -7.0D-01,  5.0D-01, -4.3D-02, r^2= 7.1D+00
   Bfn.  Coefficient  Atom+Function         Bfn.  Coefficient  Atom+Function  
  ----- ------------  ---------------      ----- ------------  ---------------
    94      2.302110  3 H  s                112      2.146495  4 H  s          
   151     -2.003542  6 H  s                 17     -1.970326  1 C  pz         
   150     -1.949499  6 H  s                 14     -1.699792  1 C  s          
    13     -1.130119  1 C  pz                16     -1.055497  1 C  py         
   113      1.042431  4 H  s                131      0.886225  5 H  s          

 Vector   16  Occ=0.000000D+00  E= 5.312286D-02
              MO Center= -1.1D+00, -5.4D-01, -2.4D-02, r^2= 8.8D+00
   Bfn.  Coefficient  Atom+Function         Bfn.  Coefficient  Atom+Function  
  ----- ------------  ---------------      ----- ------------  ---------------
    94      2.205576  3 H  s                131      2.037368  5 H  s          
    93     -1.709976  3 H  s                113     -1.465656  4 H  s          
    16     -1.130560  1 C  py               170     -1.118026  7 H  s          
    17      1.089519  1 C  pz               132      1.025836  5 H  s          
   112     -0.900501  4 H  s                 11      0.835899  1 C  px         

 Vector   17  Occ=0.000000D+00  E= 5.329724D-02
              MO Center= -1.2D+00, -9.7D-02, -1.2D-01, r^2= 9.0D+00
   Bfn.  Coefficient  Atom+Function         Bfn.  Coefficient  Atom+Function  
  ----- ------------  ---------------      ----- ------------  ---------------
    93      3.131088  3 H  s                 14     -2.244324  1 C  s          
    15     -1.633228  1 C  px               131      1.408376  5 H  s          
   112     -1.395865  4 H  s                 11     -1.267369  1 C  px         
    94      1.178490  3 H  s                 16     -1.150173  1 C  py         
    10     -1.019066  1 C  s                 59     -0.855018  2 O  s          

 Vector   18  Occ=0.000000D+00  E= 7.693753D-02
              MO Center=  2.9D-01, -8.6D-01,  2.2D-01, r^2= 1.2D+01
   Bfn.  Coefficient  Atom+Function         Bfn.  Coefficient  Atom+Function  
  ----- ------------  ---------------      ----- ------------  ---------------
    94     11.473436  3 H  s                 14     -8.759563  1 C  s          
    93      4.341315  3 H  s                 15     -2.852451  1 C  px         
   170     -2.537583  7 H  s                 10     -2.477352  1 C  s          
   150      2.026689  6 H  s                 16      1.566720  1 C  py         
    59     -1.501487  2 O  s                 11     -1.115063  1 C  px         

 Vector   19  Occ=0.000000D+00  E= 9.352853D-02
              MO Center= -8.4D-01,  8.2D-01, -3.0D-02, r^2= 1.6D+01
   Bfn.  Coefficient  Atom+Function         Bfn.  Coefficient  Atom+Function  
  ----- ------------  ---------------      ----- ------------  ---------------
    14     10.362830  1 C  s                132     -3.467229  5 H  s          
   151     -2.914251  6 H  s                113     -2.782472  4 H  s          
    10      2.560410  1 C  s                 94      2.440136  3 H  s          
   170     -1.566440  7 H  s                131     -1.507038  5 H  s          
   150     -1.431990  6 H  s                169      1.417498  7 H  s          

 Vector   20  Occ=0.000000D+00  E= 1.135462D-01
              MO Center=  5.0D-01,  4.4D-01,  3.2D-02, r^2= 1.4D+01
   Bfn.  Coefficient  Atom+Function         Bfn.  Coefficient  Atom+Function  
  ----- ------------  ---------------      ----- ------------  ---------------
    14      6.295436  1 C  s                169     -2.864944  7 H  s          
   170      2.160441  7 H  s                113     -1.995366  4 H  s          
   151     -1.993916  6 H  s                 94     -1.431761  3 H  s          
   132     -1.321523  5 H  s                 59      1.194618  2 O  s          
    93     -0.820822  3 H  s                101      0.754564  3 H  px         

 Vector   21  Occ=0.000000D+00  E= 1.368315D-01
              MO Center= -1.4D+00, -3.9D-01,  1.2D-01, r^2= 1.0D+01
   Bfn.  Coefficient  Atom+Function         Bfn.  Coefficient  Atom+Function  
  ----- ------------  ---------------      ----- ------------  ---------------
   151      5.015477  6 H  s                113     -4.260476  4 H  s          
    17      2.880982  1 C  pz                16      1.188461  1 C  py         
    93      1.092572  3 H  s                 59     -1.001534  2 O  s          
    13     -0.909660  1 C  pz               112      0.914057  4 H  s          
   132     -0.756264  5 H  s                 10     -0.668044  1 C  s          

 Vector   22  Occ=0.000000D+00  E= 1.373688D-01
              MO Center= -1.7D+00,  6.8D-01, -1.7D-01, r^2= 1.1D+01
   Bfn.  Coefficient  Atom+Function         Bfn.  Coefficient  Atom+Function  
  ----- ------------  ---------------      ----- ------------  ---------------
   132      6.066719  5 H  s                113     -3.702999  4 H  s          
   151     -3.181752  6 H  s                 16     -3.061174  1 C  py         
   131     -1.635356  5 H  s                 93     -1.480446  3 H  s          
    12      1.213783  1 C  py                94      1.161244  3 H  s          
    17      1.127225  1 C  pz                10      0.800371  1 C  s          

 Vector   23  Occ=0.000000D+00  E= 1.441261D-01
              MO Center= -4.9D-01, -3.4D-01,  2.6D-01, r^2= 8.4D+00
   Bfn.  Coefficient  Atom+Function         Bfn.  Coefficient  Atom+Function  
  ----- ------------  ---------------      ----- ------------  ---------------
   113      2.928766  4 H  s                151     -2.396931  6 H  s          
   150      1.327806  6 H  s                 17     -1.197312  1 C  pz         
    59     -1.192579  2 O  s                 93      0.993024  3 H  s          
   112     -0.949205  4 H  s                 13      0.816262  1 C  pz         
   132     -0.781398  5 H  s                 14     -0.753269  1 C  s          

 Vector   24  Occ=0.000000D+00  E= 1.606013D-01
              MO Center= -1.7D-01,  1.1D-03, -1.7D-01, r^2= 5.8D+00
   Bfn.  Coefficient  Atom+Function         Bfn.  Coefficient  Atom+Function  
  ----- ------------  ---------------      ----- ------------  ---------------
    94      3.966382  3 H  s                169     -2.094515  7 H  s          
    93     -1.873446  3 H  s                 59      1.800173  2 O  s          
   113     -1.617564  4 H  s                131      1.194877  5 H  s          
    15     -1.153326  1 C  px               150     -1.127036  6 H  s          
    61      1.101472  2 O  py                10      1.011993  1 C  s          

 Vector   25  Occ=0.000000D+00  E= 1.816288D-01
              MO Center=  2.7D-01,  1.3D-02, -4.8D-03, r^2= 8.8D+00
   Bfn.  Coefficient  Atom+Function         Bfn.  Coefficient  Atom+Function  
  ----- ------------  ---------------      ----- ------------  ---------------
    14     12.640852  1 C  s                 93     -8.672908  3 H  s          
    10      6.945059  1 C  s                 94     -5.921225  3 H  s          
    59      4.215175  2 O  s                131     -3.373446  5 H  s          
   112     -3.079970  4 H  s                150     -2.559793  6 H  s          
   169     -2.220348  7 H  s                 15      1.999855  1 C  px         

 Vector   26  Occ=0.000000D+00  E= 2.075483D-01
              MO Center=  1.1D+00, -1.4D-03, -8.3D-02, r^2= 9.5D+00
   Bfn.  Coefficient  Atom+Function         Bfn.  Coefficient  Atom+Function  
  ----- ------------  ---------------      ----- ------------  ---------------
    94      5.051858  3 H  s                 59     -4.562991  2 O  s          
   169      4.084283  7 H  s                132     -2.441783  5 H  s          
    15     -2.312954  1 C  px                10      2.249711  1 C  s          
    61     -1.898734  2 O  py                93     -1.792199  3 H  s          
   151     -1.680626  6 H  s                112     -1.436187  4 H  s          

 Vector   27  Occ=0.000000D+00  E= 2.175660D-01
              MO Center=  4.5D-01, -9.9D-02, -1.4D-02, r^2= 6.7D+00
   Bfn.  Coefficient  Atom+Function         Bfn.  Coefficient  Atom+Function  
  ----- ------------  ---------------      ----- ------------  ---------------
    94      3.448296  3 H  s                112      2.150996  4 H  s          
   150     -1.899754  6 H  s                 13     -1.680641  1 C  pz         
    15     -1.579953  1 C  px                14     -1.353115  1 C  s          
   113     -0.996040  4 H  s                 62     -0.849704  2 O  pz         
    60     -0.785720  2 O  px               131     -0.770806  5 H  s          

 Vector   28  Occ=0.000000D+00  E= 2.345529D-01
              MO Center= -2.1D-01,  3.4D-02,  7.6D-02, r^2= 8.6D+00
   Bfn.  Coefficient  Atom+Function         Bfn.  Coefficient  Atom+Function  
  ----- ------------  ---------------      ----- ------------  ---------------
    59      6.112531  2 O  s                169     -5.307749  7 H  s          
    94      4.083081  3 H  s                 61      3.051092  2 O  py         
    15     -2.432503  1 C  px               112     -2.029900  4 H  s          
    11     -1.692003  1 C  px               113     -1.581276  4 H  s          
   131     -1.475471  5 H  s                 10      1.222425  1 C  s          

 Vector   29  Occ=0.000000D+00  E= 2.503392D-01
              MO Center= -7.8D-02, -4.7D-01,  9.7D-02, r^2= 1.1D+01
   Bfn.  Coefficient  Atom+Function         Bfn.  Coefficient  Atom+Function  
  ----- ------------  ---------------      ----- ------------  ---------------
    14     14.621673  1 C  s                 94     -8.530270  3 H  s          
   131     -5.389736  5 H  s                112     -4.912522  4 H  s          
    93      4.677286  3 H  s                150     -3.982061  6 H  s          
    10      3.802018  1 C  s                 11     -2.901466  1 C  px         
    59     -2.505756  2 O  s                132     -1.899946  5 H  s          

 Vector   30  Occ=0.000000D+00  E= 2.587042D-01
              MO Center= -1.2D+00,  4.0D-01, -4.9D-01, r^2= 8.5D+00
   Bfn.  Coefficient  Atom+Function         Bfn.  Coefficient  Atom+Function  
  ----- ------------  ---------------      ----- ------------  ---------------
   112      5.410649  4 H  s                150     -5.402368  6 H  s          
    13     -3.463914  1 C  pz                17     -3.301539  1 C  pz         
    14      2.983194  1 C  s                131     -2.412897  5 H  s          
   113      1.604332  4 H  s                 94     -1.471168  3 H  s          
    34      1.454552  1 C  dyz              151     -1.393799  6 H  s          

 Vector   31  Occ=0.000000D+00  E= 2.619136D-01
              MO Center= -1.4D+00, -6.1D-01,  3.4D-01, r^2= 8.2D+00
   Bfn.  Coefficient  Atom+Function         Bfn.  Coefficient  Atom+Function  
  ----- ------------  ---------------      ----- ------------  ---------------
    14      6.848671  1 C  s                150     -6.323606  6 H  s          
   131      4.933982  5 H  s                 94     -3.878764  3 H  s          
    12     -3.778219  1 C  py               112     -3.702401  4 H  s          
    16     -3.097164  1 C  py                10      2.419206  1 C  s          
    34      1.469075  1 C  dyz              151     -1.226654  6 H  s          

 Vector   32  Occ=0.000000D+00  E= 2.733748D-01
              MO Center=  1.4D-01, -3.2D-03,  6.0D-02, r^2= 1.0D+01
   Bfn.  Coefficient  Atom+Function         Bfn.  Coefficient  Atom+Function  
  ----- ------------  ---------------      ----- ------------  ---------------
    14     13.908316  1 C  s                 10      7.469021  1 C  s          
   131     -4.379798  5 H  s                 59     -3.831837  2 O  s          
    93     -3.701776  3 H  s                112     -3.284765  4 H  s          
   113     -2.490180  4 H  s                151     -2.454424  6 H  s          
   101      2.438616  3 H  px               150     -2.193093  6 H  s          

 Vector   33  Occ=0.000000D+00  E= 3.159460D-01
              MO Center=  9.1D-01,  4.6D-01,  2.4D-02, r^2= 4.5D+00
   Bfn.  Coefficient  Atom+Function         Bfn.  Coefficient  Atom+Function  
  ----- ------------  ---------------      ----- ------------  ---------------
    14      2.137711  1 C  s                179     -1.271441  7 H  pz         
    34     -0.919077  1 C  dyz              132     -0.918633  5 H  s          
    62      0.788792  2 O  pz                59     -0.769802  2 O  s          
    32     -0.753959  1 C  dxz              131     -0.726975  5 H  s          
   113     -0.594372  4 H  s                 10      0.575972  1 C  s          

 Vector   34  Occ=0.000000D+00  E= 3.304527D-01
              MO Center=  3.9D-01, -5.1D-01,  2.8D-02, r^2= 8.0D+00
   Bfn.  Coefficient  Atom+Function         Bfn.  Coefficient  Atom+Function  
  ----- ------------  ---------------      ----- ------------  ---------------
    93     20.789103  3 H  s                 59    -11.590463  2 O  s          
    94      8.118243  3 H  s                 11     -6.902613  1 C  px         
    10     -6.446075  1 C  s                 14     -5.731783  1 C  s          
    60      3.863226  2 O  px               101     -3.591519  3 H  px         
    15     -2.699567  1 C  px               131     -2.148231  5 H  s          

 Vector   35  Occ=0.000000D+00  E= 3.916709D-01
              MO Center=  5.7D-01,  4.1D-01, -6.1D-02, r^2= 6.9D+00
   Bfn.  Coefficient  Atom+Function         Bfn.  Coefficient  Atom+Function  
  ----- ------------  ---------------      ----- ------------  ---------------
   169      6.360672  7 H  s                 59     -3.578827  2 O  s          
    10      3.103429  1 C  s                150     -2.454060  6 H  s          
    61     -1.897640  2 O  py               178     -1.602529  7 H  py         
   112     -1.496352  4 H  s                 55     -1.084603  2 O  s          
    14      1.050438  1 C  s                 35      0.987191  1 C  dzz        

 Vector   36  Occ=0.000000D+00  E= 4.319727D-01
              MO Center= -1.5D+00,  8.8D-02, -2.4D-02, r^2= 4.1D+00
   Bfn.  Coefficient  Atom+Function         Bfn.  Coefficient  Atom+Function  
  ----- ------------  ---------------      ----- ------------  ---------------
   141      1.147259  5 H  pz               121     -0.967867  4 H  py         
   169     -0.746696  7 H  s                160     -0.727749  6 H  pz         
   159      0.690070  6 H  py                59      0.440836  2 O  s          
   140      0.317778  5 H  py               150     -0.273102  6 H  s          
   122     -0.246381  4 H  pz                61      0.233375  2 O  py         

 Vector   37  Occ=0.000000D+00  E= 4.336046D-01
              MO Center=  3.3D-01,  4.8D-01, -1.3D-01, r^2= 6.6D+00
   Bfn.  Coefficient  Atom+Function         Bfn.  Coefficient  Atom+Function  
  ----- ------------  ---------------      ----- ------------  ---------------
   169      6.795851  7 H  s                 93     -5.612397  3 H  s          
    10      5.360004  1 C  s                131     -3.473285  5 H  s          
    14      2.880670  1 C  s                 59     -1.767930  2 O  s          
    61     -1.762424  2 O  py               112     -1.568953  4 H  s          
   178     -1.408904  7 H  py                12      1.273700  1 C  py         

 Vector   38  Occ=0.000000D+00  E= 4.470335D-01
              MO Center= -1.5D+00,  2.0D-01, -7.1D-02, r^2= 6.4D+00
   Bfn.  Coefficient  Atom+Function         Bfn.  Coefficient  Atom+Function  
  ----- ------------  ---------------      ----- ------------  ---------------
    93      4.605039  3 H  s                 33     -3.488841  1 C  dyy        
   131      3.308881  5 H  s                 35     -3.099968  1 C  dzz        
   150      2.515511  6 H  s                112      2.398470  4 H  s          
    94      2.276586  3 H  s                 30     -2.029053  1 C  dxx        
    59     -1.872741  2 O  s                132     -1.601021  5 H  s          

 Vector   39  Occ=0.000000D+00  E= 4.543475D-01
              MO Center= -8.0D-01, -8.6D-02,  2.6D-01, r^2= 4.9D+00
   Bfn.  Coefficient  Atom+Function         Bfn.  Coefficient  Atom+Function  
  ----- ------------  ---------------      ----- ------------  ---------------
   169      2.805836  7 H  s                 10      2.256694  1 C  s          
    14      2.234013  1 C  s                 59     -1.762896  2 O  s          
   103     -1.122248  3 H  pz               120      0.977086  4 H  px         
    61     -0.965252  2 O  py                17     -0.853212  1 C  pz         
   131     -0.854830  5 H  s                151     -0.844091  6 H  s          

 Vector   40  Occ=0.000000D+00  E= 4.807835D-01
              MO Center= -1.3D+00,  3.7D-02, -2.0D-01, r^2= 6.5D+00
   Bfn.  Coefficient  Atom+Function         Bfn.  Coefficient  Atom+Function  
  ----- ------------  ---------------      ----- ------------  ---------------
   131      4.870162  5 H  s                 10     -4.237277  1 C  s          
    14     -4.143950  1 C  s                112      3.421252  4 H  s          
   151      3.245358  6 H  s                 93      2.698061  3 H  s          
   150     -2.550209  6 H  s                 12     -2.537324  1 C  py         
    59     -2.481177  2 O  s                169      2.421568  7 H  s          

 Vector   41  Occ=0.000000D+00  E= 4.888974D-01
              MO Center= -1.4D+00,  7.0D-02,  3.5D-01, r^2= 6.6D+00
   Bfn.  Coefficient  Atom+Function         Bfn.  Coefficient  Atom+Function  
  ----- ------------  ---------------      ----- ------------  ---------------
   131     -6.128678  5 H  s                 14      5.787582  1 C  s          
    10      5.636862  1 C  s                150     -4.644350  6 H  s          
    13     -4.233109  1 C  pz               112      3.997759  4 H  s          
   113     -3.770238  4 H  s                 93     -2.415995  3 H  s          
   140      1.570826  5 H  py                12      1.489101  1 C  py         

 Vector   42  Occ=0.000000D+00  E= 4.923623D-01
              MO Center= -9.1D-01, -5.9D-02, -1.6D-03, r^2= 7.5D+00
   Bfn.  Coefficient  Atom+Function         Bfn.  Coefficient  Atom+Function  
  ----- ------------  ---------------      ----- ------------  ---------------
    10     17.693680  1 C  s                 14     17.707625  1 C  s          
    93     -9.382783  3 H  s                112     -8.870534  4 H  s          
   150     -8.756549  6 H  s                 94     -5.003093  3 H  s          
    59      4.015772  2 O  s                169     -4.024046  7 H  s          
   131     -3.761640  5 H  s                101      3.481691  3 H  px         

 Vector   43  Occ=0.000000D+00  E= 4.992039D-01
              MO Center= -7.8D-01,  2.7D-02, -2.3D-01, r^2= 5.6D+00
   Bfn.  Coefficient  Atom+Function         Bfn.  Coefficient  Atom+Function  
  ----- ------------  ---------------      ----- ------------  ---------------
   131      4.475090  5 H  s                 14     -3.930221  1 C  s          
    10     -3.560082  1 C  s                 12     -2.860441  1 C  py         
   150     -2.615443  6 H  s                 59      2.172039  2 O  s          
   151      1.971129  6 H  s                112      1.953005  4 H  s          
    31     -1.789946  1 C  dxy               32      1.492489  1 C  dxz        

 Vector   44  Occ=0.000000D+00  E= 5.052826D-01
              MO Center= -1.5D+00, -1.2D-01, -2.8D-02, r^2= 4.8D+00
   Bfn.  Coefficient  Atom+Function         Bfn.  Coefficient  Atom+Function  
  ----- ------------  ---------------      ----- ------------  ---------------
    93      7.252907  3 H  s                 11     -5.596480  1 C  px         
   101     -5.098948  3 H  px                94     -4.221129  3 H  s          
    14      3.871129  1 C  s                150     -3.413814  6 H  s          
    10     -2.803684  1 C  s                112     -2.768661  4 H  s          
   131     -2.449458  5 H  s                 55      2.167023  2 O  s          


   alpha - beta orbital overlaps 
   ----------------------------- 


   alpha      1      2      3      4      5      6      7      8      9     10
    beta      1      2      3      4      5      6      7      8      9     10
 overlap   1.000  1.000  1.000  0.999  0.967  0.778  0.942  0.828  1.000  0.996


   alpha     11     12     13     14     15     16     17     18     19     20
    beta     11     12     13     14     15     17     16     18     19     20
 overlap   0.999  0.997  0.996  0.997  0.979  0.718  0.725  0.998  0.998  0.996


   alpha     21     22     23     24     25     26     27     28     29     30
    beta     21     22     23     24     25     26     27     28     29     30
 overlap   0.997  0.996  0.999  0.998  0.992  0.990  0.993  0.995  0.994  0.999


   alpha     31     32     33     34     35     36     37     38     39     40
    beta     31     32     33     34     35     37     36     38     39     40
 overlap   0.998  0.985  1.000  0.988  0.999  0.982  0.987  0.989  0.997  0.992


   alpha     41     42     43     44     45     46     47     48     49     50
    beta     41     42     43     44     45     46     47     48     49     50
 overlap   0.981  0.955  0.721  0.689  0.995  1.000  0.999  0.998  0.997  0.999


   alpha     51     52     53     54     55     56     57     58     59     60
    beta     51     52     53     54     55     56     57     58     59     60
 overlap   0.998  0.999  0.998  0.997  0.996  0.980  0.982  0.931  0.744  0.805


   alpha     61     62     63     64     65     66     67     68     69     70
    beta     61     62     63     64     65     66     67     68     69     70
 overlap   0.979  0.999  0.999  0.999  0.998  0.953  0.948  0.990  0.999  0.999


   alpha     71     72     73     74     75     76     77     78     79     80
    beta     71     72     73     74     75     76     77     78     79     80
 overlap   0.999  1.000  0.998  0.993  0.994  0.995  0.994  0.999  0.995  0.991


   alpha     81     82     83     84     85     86     87     88     89     90
    beta     81     82     83     84     85     86     87     88     89     90
 overlap   0.991  0.999  1.000  0.999  0.997  0.998  0.991  0.987  0.986  0.998


   alpha     91     92     93     94     95     96     97     98     99    100
    beta     91     92     93     94     95     96     97     98     99    100
 overlap   0.992  0.985  0.996  0.998  0.999  0.999  0.997  1.000  0.999  0.997


   alpha    101    102    103    104    105    106    107    108    109    110
    beta    101    102    103    104    105    106    107    108    109    110
 overlap   1.000  0.995  0.984  0.984  0.988  0.988  0.999  1.000  0.974  0.970


   alpha    111    112    113    114    115    116    117    118    119    120
    beta    111    112    113    114    115    116    117    118    119    120
 overlap   0.999  0.996  0.999  0.983  0.984  0.930  0.924  0.990  0.996  0.992


   alpha    121    122    123    124    125    126    127    128    129    130
    beta    121    122    123    124    125    126    127    128    129    130
 overlap   0.992  0.994  0.995  0.999  0.999  0.999  0.997  0.998  0.949  0.949


   alpha    131    132    133    134    135    136    137    138    139    140
    beta    131    132    133    135    134    136    137    138    139    140
 overlap   0.996  0.998  0.999  0.936  0.940  0.998  1.000  0.999  1.000  1.000


   alpha    141    142    143    144    145    146    147    148    149    150
    beta    141    142    143    144    145    146    147    148    149    150
 overlap   1.000  1.000  1.000  1.000  1.000  1.000  0.999  0.999  1.000  1.000


   alpha    151    152    153    154    155    156    157    158    159    160
    beta    151    152    153    154    155    156    158    159    157    160
 overlap   1.000  1.000  0.971  0.947  0.982  0.987  0.964  0.948  0.949  0.999


   alpha    161    162    163    164    165    166    167    168    169    170
    beta    161    162    163    164    165    166    167    168    169    170
 overlap   0.989  0.987  0.994  0.994  0.993  0.992  1.000  0.995  0.988  0.989


   alpha    171    172    173    174    175    176    177    178    179    180
    beta    171    172    173    174    175    177    176    178    179    180
 overlap   0.995  0.999  0.995  0.997  1.000  0.990  0.990  1.000  1.000  1.000


   alpha    181    182    183    184    185
    beta    181    182    183    184    185
 overlap   1.000  1.000  1.000  1.000  1.000

     --------------------------
     Expectation value of S2:  
     --------------------------
      <S2> =      0.7558 (Exact =     0.7500)


 center of mass
 --------------
 x =   0.17459603 y =  -0.04660790 z =   0.00019861

 moments of inertia (a.u.)
 ------------------
          15.017072864849           3.920332127494           0.007159568069
           3.920332127494         195.076741319046           0.000012780306
           0.007159568069           0.000012780306         198.276246643679

     Multipole analysis of the density
     ---------------------------------

     L   x y z        total         alpha         beta         nuclear
     -   - - -        -----         -----         ----         -------
     0   0 0 0     -0.000000    -10.000000     -9.000000     19.000000

     1   1 0 0     -0.695494     -0.492139     -0.203355     -0.000000
     1   0 1 0      0.557256      0.330026      0.227230     -0.000000
     1   0 0 1     -0.000917     -0.000899     -0.000017      0.000000

     2   2 0 0    -11.216726    -64.638810    -57.256058    110.678141
     2   1 1 0      1.888191      1.073743      0.814388      0.000060
     2   1 0 1      0.001985      0.000892      0.001311     -0.000218
     2   0 2 0     -9.943486     -9.555488     -9.163378      8.775380
     2   0 1 1      0.005359      0.000739      0.004608      0.000012
     2   0 0 2    -11.542254     -8.899287     -8.505870      5.862904


------------------------------------------------------------
EAF file 0: "./TS1.aoints.0" size=1238368256 bytes
------------------------------------------------------------
               write      read    awrite     aread      wait
               -----      ----    ------     -----      ----
     calls:     2362        13         0     30693     30693
   data(b): 1.24e+09  6.82e+06  0.00e+00  1.61e+10
   time(s): 0.00e+00  0.00e+00  0.00e+00  0.00e+00  0.00e+00
rate(mb/s): 0.00e+00  0.00e+00
------------------------------------------------------------


 Parallel integral file used    2362 records with       0 large values


 Task  times  cpu:      116.7s     wall:      120.4s


                                NWChem Input Module
                                -------------------


 Summary of allocated global arrays
-----------------------------------
  No active global arrays



                         GA Statistics for process    0
                         ------------------------------

       create   destroy   get      put      acc     scatter   gather  read&inc
calls:  381      381     1.90e+05 2.01e+04 1.23e+05    0        0     1250     
number of processes/call 1.00e+00 1.00e+00 1.00e+00 0.00e+00 0.00e+00
bytes total:             1.20e+09 1.18e+08 7.70e+08 0.00e+00 0.00e+00 1.00e+04
bytes remote:            0.00e+00 0.00e+00 0.00e+00 0.00e+00 0.00e+00 0.00e+00
Max memory consumed for GA by this process: 17797000 bytes

MA_summarize_allocated_blocks: starting scan ...
MA_summarize_allocated_blocks: scan completed: 0 heap blocks, 0 stack blocks
MA usage statistics:

	allocation statistics:
					      heap	     stack
					      ----	     -----
	current number of blocks	         0	         0
	maximum number of blocks	        22	        51
	current total bytes		         0	         0
	maximum total bytes		   5151208	  30982632
	maximum total K-bytes		      5152	     30983
	maximum total M-bytes		         6	        31


                                     CITATION
                                     --------
                Please cite the following reference when publishing
                           results obtained with NWChem:

                 M. Valiev, E.J. Bylaska, N. Govind, K. Kowalski,
              T.P. Straatsma, H.J.J. van Dam, D. Wang, J. Nieplocha,
                        E. Apra, T.L. Windus, W.A. de Jong
                 "NWChem: a comprehensive and scalable open-source
                  solution for large scale molecular simulations"
                      Comput. Phys. Commun. 181, 1477 (2010)
                           doi:10.1016/j.cpc.2010.04.018

                                      AUTHORS
                                      -------
          E. Apra, E. J. Bylaska, W. A. de Jong, N. Govind, K. Kowalski,
       T. P. Straatsma, M. Valiev, H. J. J. van Dam, D. Wang, T. L. Windus,
        J. Hammond, J. Autschbach, K. Bhaskaran-Nair, J. Brabec, K. Lopata,
       S. A. Fischer, S. Krishnamoorthy, W. Ma, M. Klemm, O. Villa, Y. Chen,
    V. Anisimov, F. Aquino, S. Hirata, M. T. Hackler, T. Risthaus, M. Malagoli,
       A. Marenich, A. Otero-de-la-Roza, J. Mullin, P. Nichols, R. Peverati,
     J. Pittner, Y. Zhao, P.-D. Fan, A. Fonari, M. Williamson, R. J. Harrison,
       J. R. Rehr, M. Dupuis, D. Silverstein, D. M. A. Smith, J. Nieplocha,
        V. Tipparaju, M. Krishnan, B. E. Van Kuiken, A. Vazquez-Mayagoitia,
        L. Jensen, M. Swart, Q. Wu, T. Van Voorhis, A. A. Auer, M. Nooijen,
      L. D. Crosby, E. Brown, G. Cisneros, G. I. Fann, H. Fruchtl, J. Garza,
        K. Hirao, R. A. Kendall, J. A. Nichols, K. Tsemekhman, K. Wolinski,
     J. Anchell, D. E. Bernholdt, P. Borowski, T. Clark, D. Clerc, H. Dachsel,
   M. J. O. Deegan, K. Dyall, D. Elwood, E. Glendening, M. Gutowski, A. C. Hess,
         J. Jaffe, B. G. Johnson, J. Ju, R. Kobayashi, R. Kutteh, Z. Lin,
   R. Littlefield, X. Long, B. Meng, T. Nakajima, S. Niu, L. Pollack, M. Rosing,
   K. Glaesemann, G. Sandrone, M. Stave, H. Taylor, G. Thomas, J. H. van Lenthe,
                               A. T. Wong, Z. Zhang.

 Total times  cpu:      116.7s     wall:      120.5s
