 argument  1 = /storage/home/rabeet/work/nwc/bh6/nwtpss/CH4.nw
  NWChem w/ OpenMP: maximum threads =  1
                                         
                                         
 
 
              Northwest Computational Chemistry Package (NWChem) 6.8
              ------------------------------------------------------
 
 
                    Environmental Molecular Sciences Laboratory
                       Pacific Northwest National Laboratory
                                Richland, WA 99352
 
                              Copyright (c) 1994-2018
                       Pacific Northwest National Laboratory
                            Battelle Memorial Institute
 
             NWChem is an open-source computational chemistry package
                        distributed under the terms of the
                      Educational Community License (ECL) 2.0
             A copy of the license is included with this distribution
                              in the LICENSE.TXT file
 
                                  ACKNOWLEDGMENT
                                  --------------

            This software and its documentation were developed at the
            EMSL at Pacific Northwest National Laboratory, a multiprogram
            national laboratory, operated for the U.S. Department of Energy
            by Battelle under Contract Number DE-AC05-76RL01830. Support
            for this work was provided by the Department of Energy Office
            of Biological and Environmental Research, Office of Basic
            Energy Sciences, and the Office of Advanced Scientific Computing.


           Job information
           ---------------

    hostname        = r8n4.niserhpc.org
    program         = /home/rabeet/nwchem-6.8/bin/LINUX64/nwchem
    date            = Sun Oct 27 08:43:50 2019

    compiled        = Fri_Jun_28_18:24:12_2019
    source          = /home/rabeet/nwchem-6.8
    nwchem branch   = Development
    nwchem revision = N/A
    ga revision     = 5.6.5
    use scalapack   = T
    input           = /storage/home/rabeet/work/nwc/bh6/nwtpss/CH4.nw
    prefix          = CH4.
    data base       = ./CH4.db
    status          = startup
    nproc           =       16
    time left       =     -1s



           Memory information
           ------------------

    heap     =   13107200 doubles =    100.0 Mbytes
    stack    =   13107197 doubles =    100.0 Mbytes
    global   =   26214400 doubles =    200.0 Mbytes (distinct from heap & stack)
    total    =   52428797 doubles =    400.0 Mbytes
    verify   = yes
    hardfail = no 


           Directory information
           ---------------------
 
  0 permanent = .
  0 scratch   = .
 
 
 
 
                                NWChem Input Module
                                -------------------
 
 

 Scaling coordinates for geometry "geometry" by  1.889725989
 (inverse scale =  0.529177249)


          ------
          auto-z
          ------
  Looking for out-of-plane bends
  no constraints, skipping   0.000000000000000E+000
  no constraints, skipping   0.000000000000000E+000
 
 
                             Geometry "geometry" -> ""
                             -------------------------
 
 Output coordinates in angstroms (scale by  1.889725989 to convert to a.u.)
 
  No.       Tag          Charge          X              Y              Z
 ---- ---------------- ---------- -------------- -------------- --------------
    1 C                    6.0000     0.00000100     0.00000000    -0.00000000
    2 H                    1.0000     0.00000100     0.00000000     1.08744000
    3 H                    1.0000     1.02525100     0.00000000    -0.36248000
    4 H                    1.0000    -0.51262900     0.88789000    -0.36248000
    5 H                    1.0000    -0.51262900    -0.88789000    -0.36248000
 
      Atomic Mass 
      ----------- 
 
      C                 12.000000
      H                  1.007825
 

 Effective nuclear repulsion energy (a.u.)      13.4670022567

            Nuclear Dipole moment (a.u.) 
            ----------------------------
        X                 Y               Z
 ---------------- ---------------- ----------------
     0.0000000000     0.0000000000     0.0000000000
 


                                Z-matrix (autoz)
                                -------- 

 Units are Angstrom for bonds and degrees for angles
 
      Type          Name      I     J     K     L     M      Value
      ----------- --------  ----- ----- ----- ----- ----- ----------
    1 Stretch                  1     2                       1.08744
    2 Stretch                  1     3                       1.08744
    3 Stretch                  1     4                       1.08744
    4 Stretch                  1     5                       1.08744
    5 Bend                     2     1     3               109.47119
    6 Bend                     2     1     4               109.47118
    7 Bend                     2     1     5               109.47118
    8 Bend                     3     1     4               109.47151
    9 Bend                     3     1     5               109.47151
   10 Bend                     4     1     5               109.47075
 
 
            XYZ format geometry
            -------------------
     5
 geometry
 C                     0.00000100     0.00000000    -0.00000000
 H                     0.00000100     0.00000000     1.08744000
 H                     1.02525100     0.00000000    -0.36248000
 H                    -0.51262900     0.88789000    -0.36248000
 H                    -0.51262900    -0.88789000    -0.36248000
 
 ==============================================================================
                                internuclear distances
 ------------------------------------------------------------------------------
       center one      |      center two      | atomic units |  angstroms
 ------------------------------------------------------------------------------
    2 H                |   1 C                |     2.05496  |     1.08744
    3 H                |   1 C                |     2.05497  |     1.08744
    4 H                |   1 C                |     2.05497  |     1.08744
    5 H                |   1 C                |     2.05497  |     1.08744
 ------------------------------------------------------------------------------
                         number of included internuclear distances:          4
 ==============================================================================



 ==============================================================================
                                 internuclear angles
 ------------------------------------------------------------------------------
        center 1       |       center 2       |       center 3       |  degrees
 ------------------------------------------------------------------------------
    2 H                |   1 C                |   3 H                |   109.47
    2 H                |   1 C                |   4 H                |   109.47
    2 H                |   1 C                |   5 H                |   109.47
    3 H                |   1 C                |   4 H                |   109.47
    3 H                |   1 C                |   5 H                |   109.47
    4 H                |   1 C                |   5 H                |   109.47
 ------------------------------------------------------------------------------
                            number of included internuclear angles:          6
 ==============================================================================





 Summary of "ao basis" -> "" (cartesian)
 ------------------------------------------------------------------------------
       Tag                 Description            Shells   Functions and Types
 ---------------- ------------------------------  ------  ---------------------
 *                     6-311++G(3df,3pd)              on all atoms 


 
                                 NWChem DFT Module
                                 -----------------
 
 
                      Basis "ao basis" -> "ao basis" (cartesian)
                      -----
  C (Carbon)
  ----------
            Exponent  Coefficients 
       -------------- ---------------------------------------------------------
  1 S  4.56324000E+03  0.001967
  1 S  6.82024000E+02  0.015231
  1 S  1.54973000E+02  0.076127
  1 S  4.44553000E+01  0.260801
  1 S  1.30290000E+01  0.616462
  1 S  1.82773000E+00  0.221006
 
  2 S  2.09642000E+01  0.114660
  2 S  4.80331000E+00  0.919999
  2 S  1.45933000E+00 -0.003031
 
  3 P  2.09642000E+01  0.040249
  3 P  4.80331000E+00  0.237594
  3 P  1.45933000E+00  0.815854
 
  4 S  4.83456000E-01  1.000000
 
  5 P  4.83456000E-01  1.000000
 
  6 S  1.45585000E-01  1.000000
 
  7 P  1.45585000E-01  1.000000
 
  8 S  4.38000000E-02  1.000000
 
  9 P  4.38000000E-02  1.000000
 
 10 D  2.50400000E+00  1.000000
 
 11 D  6.26000000E-01  1.000000
 
 12 D  1.56500000E-01  1.000000
 
 13 F  8.00000000E-01  1.000000
 
  H (Hydrogen)
  ------------
            Exponent  Coefficients 
       -------------- ---------------------------------------------------------
  1 S  3.38650000E+01  0.025494
  1 S  5.09479000E+00  0.190373
  1 S  1.15879000E+00  0.852161
 
  2 S  3.25840000E-01  1.000000
 
  3 S  1.02741000E-01  1.000000
 
  4 S  3.60000000E-02  1.000000
 
  5 P  3.00000000E+00  1.000000
 
  6 P  7.50000000E-01  1.000000
 
  7 P  1.87500000E-01  1.000000
 
  8 D  1.00000000E+00  1.000000
 


 Summary of "ao basis" -> "ao basis" (cartesian)
 ------------------------------------------------------------------------------
       Tag                 Description            Shells   Functions and Types
 ---------------- ------------------------------  ------  ---------------------
 C                     6-311++G(3df,3pd)            13       45   5s4p3d1f
 H                     6-311++G(3df,3pd)             8       19   4s3p1d




 Summary of "ao basis" -> "ao basis" (cartesian)
 ------------------------------------------------------------------------------
       Tag                 Description            Shells   Functions and Types
 ---------------- ------------------------------  ------  ---------------------
 C                     6-311++G(3df,3pd)            13       45   5s4p3d1f
 H                     6-311++G(3df,3pd)             8       19   4s3p1d


  Caching 1-el integrals 
 
            General Information
            -------------------
          SCF calculation type: DFT
          Wavefunction type:  closed shell.
          No. of atoms     :     5
          No. of electrons :    10
           Alpha electrons :     5
            Beta electrons :     5
          Charge           :     0
          Spin multiplicity:     1
          Use of symmetry is: off; symmetry adaption is: off
          Maximum number of iterations: ***
          AO basis - number of functions:   121
                     number of shells:    45
          Convergence on energy requested:  1.00D-06
          Convergence on density requested:  1.00D-05
          Convergence on gradient requested:  5.00D-04
 
              XC Information
              --------------
                  TPSS metaGGA Exchange Functional  1.000          
             TPSS03 metaGGA Correlation Functional  1.000          
 
             Grid Information
             ----------------
          Grid used for XC integration:  medium    
          Radial quadrature: Mura-Knowles        
          Angular quadrature: Lebedev. 
          Tag              B.-S. Rad. Rad. Pts. Rad. Cut. Ang. Pts.
          ---              ---------- --------- --------- ---------
          C                   0.70       49          10.0       434
          H                   0.35       45          11.0       434
          Grid pruning is: on 
          Number of quadrature shells:   229
          Spatial weights used:  Erf1
 
          Convergence Information
          -----------------------
          Convergence aids based upon iterative change in 
          total energy or number of iterations. 
          Levelshifting, if invoked, occurs when the 
          HOMO/LUMO gap drops below (HL_TOL):  1.00D-02
          DIIS, if invoked, will attempt to extrapolate 
          using up to (NFOCK): 10 stored Fock matrices.

                    Damping( 0%)  Levelshifting(0.5)       DIIS
                  --------------- ------------------- ---------------
          dE  on:    start            ASAP                start   
          dE off:    2 iters        *** iters           *** iters 

 
      Screening Tolerance Information
      -------------------------------
          Density screening/tol_rho:  1.00D-10
          AO Gaussian exp screening on grid/accAOfunc:  14
          CD Gaussian exp screening on grid/accCDfunc:  20
          XC Gaussian exp screening on grid/accXCfunc:  20
          Schwarz screening/accCoul:  1.00D-08

 
      Superposition of Atomic Density Guess
      -------------------------------------
 
 Sum of atomic energies:         -39.66839054
 
      Non-variational initial energy
      ------------------------------

 Total energy =     -40.252974
 1-e energy   =     -78.287498
 2-e energy   =      24.567521
 HOMO         =      -0.525180
 LUMO         =       0.023020
 
   Time after variat. SCF:      0.6
   Time prior to 1st pass:      0.6

 Integral file          = ./CH4.aoints.00
 Record size in doubles =    65536    No. of integs per rec  =    43688
 Max. records in memory =       54    Max. records in file   =  8903995
 No. of bits per label  =        8    No. of bits per value  =       64


 #quartets = 5.354D+05 #integrals = 2.367D+07 #direct =  0.0% #cached =100.0%


File balance: exchanges=    47  moved=    33  time=   0.0


 Grid_pts file          = ./CH4.gridpts.00
 Record size in doubles =  12289        No. of grid_pts per rec  =   3070
 Max. records in memory =      4        Max. recs in file   =  47484117


           Memory utilization after 1st SCF pass: 
           Heap Space remaining (MW):        9.52             9515560
          Stack Space remaining (MW):       13.11            13106420

   convergence    iter        energy       DeltaE   RMS-Dens  Diis-err    time
 ---------------- ----- ----------------- --------- --------- ---------  ------
 d= 0,ls=0.0,diis     1    -40.5274802225 -5.40D+01  2.19D-03  1.54D-01     3.9
 d= 0,ls=0.0,diis     2    -40.5375732353 -1.01D-02  8.90D-04  2.18D-02     4.1
 d= 0,ls=0.0,diis     3    -40.5379994190 -4.26D-04  3.95D-04  1.81D-02     4.3
 d= 0,ls=0.0,diis     4    -40.5402173404 -2.22D-03  1.47D-05  4.58D-06     4.5
 d= 0,ls=0.0,diis     5    -40.5402181003 -7.60D-07  1.31D-06  1.29D-07     4.6


         Total DFT energy =      -40.540218100286
      One electron energy =      -79.904578620553
           Coulomb energy =       32.823457386197
          Exchange energy =       -6.626007647526
       Correlation energy =       -0.300091475103
 Nuclear repulsion energy =       13.467002256699

 Numeric. integr. density =       10.000002487015

     Total iterative time =      4.0s


 
                       DFT Final Molecular Orbital Analysis
                       ------------------------------------
 
 Vector    1  Occ=2.000000D+00  E=-9.967865D+00
              MO Center=  1.0D-06,  1.4D-13, -2.2D-09, r^2= 2.8D-02
   Bfn.  Coefficient  Atom+Function         Bfn.  Coefficient  Atom+Function  
  ----- ------------  ---------------      ----- ------------  ---------------
     1      0.563858  1 C  s                  2      0.464933  1 C  s          
 
 Vector    2  Occ=2.000000D+00  E=-6.440415D-01
              MO Center= -9.5D-07,  3.4D-12,  1.3D-06, r^2= 9.9D-01
   Bfn.  Coefficient  Atom+Function         Bfn.  Coefficient  Atom+Function  
  ----- ------------  ---------------      ----- ------------  ---------------
     6      0.448749  1 C  s                 10      0.317687  1 C  s          
     2     -0.182505  1 C  s                  1     -0.106488  1 C  s          
    47      0.090491  2 H  s                 66      0.090492  3 H  s          
    85      0.090490  4 H  s                104      0.090490  5 H  s          
    46      0.088674  2 H  s                 65      0.088673  3 H  s          
 
 Vector    3  Occ=2.000000D+00  E=-3.547343D-01
              MO Center=  1.2D-01, -3.0D-06, -1.2D-01, r^2= 1.3D+00
   Bfn.  Coefficient  Atom+Function         Bfn.  Coefficient  Atom+Function  
  ----- ------------  ---------------      ----- ------------  ---------------
     7      0.248337  1 C  px                66      0.214594  3 H  s          
     3      0.198409  1 C  px                11      0.163139  1 C  px         
    85     -0.147663  4 H  s                104     -0.147665  5 H  s          
    65      0.146370  3 H  s                 67      0.110868  3 H  s          
    84     -0.100720  4 H  s                103     -0.100722  5 H  s          
 
 Vector    4  Occ=2.000000D+00  E=-3.547333D-01
              MO Center=  1.2D-01, -3.5D-06,  3.0D-01, r^2= 1.2D+00
   Bfn.  Coefficient  Atom+Function         Bfn.  Coefficient  Atom+Function  
  ----- ------------  ---------------      ----- ------------  ---------------
    47      0.256155  2 H  s                  9      0.248337  1 C  pz         
     5      0.198409  1 C  pz                46      0.174720  2 H  s          
    13      0.163139  1 C  pz                66     -0.161506  3 H  s          
    48      0.132338  2 H  s                 65     -0.110162  3 H  s          
    67     -0.083439  3 H  s                  7     -0.078275  1 C  px         
 
 Vector    5  Occ=2.000000D+00  E=-3.547325D-01
              MO Center= -2.4D-01,  6.5D-06, -1.7D-01, r^2= 1.2D+00
   Bfn.  Coefficient  Atom+Function         Bfn.  Coefficient  Atom+Function  
  ----- ------------  ---------------      ----- ------------  ---------------
     8      0.260381  1 C  py                85      0.219293  4 H  s          
   104     -0.219289  5 H  s                  4      0.208032  1 C  py         
    12      0.171054  1 C  py                84      0.149578  4 H  s          
   103     -0.149576  5 H  s                 86      0.113294  4 H  s          
   105     -0.113292  5 H  s          
 
 Vector    6  Occ=0.000000D+00  E=-7.299448D-03
              MO Center= -7.9D-06, -2.8D-10, -8.0D-07, r^2= 1.1D+01
   Bfn.  Coefficient  Atom+Function         Bfn.  Coefficient  Atom+Function  
  ----- ------------  ---------------      ----- ------------  ---------------
    14      3.915945  1 C  s                 49     -1.069115  2 H  s          
    68     -1.069112  3 H  s                 87     -1.069113  4 H  s          
   106     -1.069113  5 H  s                 10      1.008253  1 C  s          
    48     -0.432570  2 H  s                 67     -0.432575  3 H  s          
    86     -0.432563  4 H  s                105     -0.432563  5 H  s          
 
 Vector    7  Occ=0.000000D+00  E= 3.766457D-02
              MO Center=  5.1D-01, -3.8D-05, -4.8D-01, r^2= 1.3D+01
   Bfn.  Coefficient  Atom+Function         Bfn.  Coefficient  Atom+Function  
  ----- ------------  ---------------      ----- ------------  ---------------
    68      2.971075  3 H  s                 87     -1.894178  4 H  s          
   106     -1.894298  5 H  s                 67     -0.923210  3 H  s          
    49      0.817410  2 H  s                 86      0.588587  4 H  s          
   105      0.588625  5 H  s                 15     -0.522821  1 C  px         
    11      0.491990  1 C  px                48     -0.253995  2 H  s          
 
 Vector    8  Occ=0.000000D+00  E= 3.766469D-02
              MO Center=  3.0D-01,  1.2D-07,  1.0D+00, r^2= 1.3D+01
   Bfn.  Coefficient  Atom+Function         Bfn.  Coefficient  Atom+Function  
  ----- ------------  ---------------      ----- ------------  ---------------
    49      3.440314  2 H  s                 68     -1.917422  3 H  s          
    48     -1.069028  2 H  s                 87     -0.761444  4 H  s          
   106     -0.761443  5 H  s                 67      0.595821  3 H  s          
    17     -0.522818  1 C  pz                13      0.491992  1 C  pz         
    58      0.271661  2 H  pz                47     -0.247344  2 H  s          
 
 Vector    9  Occ=0.000000D+00  E= 3.766483D-02
              MO Center= -8.1D-01,  3.8D-05, -5.7D-01, r^2= 1.3D+01
   Bfn.  Coefficient  Atom+Function         Bfn.  Coefficient  Atom+Function  
  ----- ------------  ---------------      ----- ------------  ---------------
    87      2.887260  4 H  s                106     -2.887181  5 H  s          
    86     -0.897165  4 H  s                105      0.897140  5 H  s          
    16     -0.537387  1 C  py                12      0.505683  1 C  py         
    85     -0.207578  4 H  s                104      0.207572  5 H  s          
    31     -0.202699  1 C  dxy               95      0.185184  4 H  py         
 
 Vector   10  Occ=0.000000D+00  E= 8.373865D-02
              MO Center= -4.3D-01,  2.9D-07, -2.2D-01, r^2= 8.9D+00
   Bfn.  Coefficient  Atom+Function         Bfn.  Coefficient  Atom+Function  
  ----- ------------  ---------------      ----- ------------  ---------------
    68     -3.786312  3 H  s                 49      3.445682  2 H  s          
    17     -2.659545  1 C  pz                67     -2.349543  3 H  s          
    15      2.159498  1 C  px                48      2.138169  2 H  s          
    13     -0.921113  1 C  pz                11      0.747941  1 C  px         
    66     -0.387715  3 H  s                 47      0.352829  2 H  s          
 
 Vector   11  Occ=0.000000D+00  E= 8.373900D-02
              MO Center=  3.9D-01,  2.6D-06,  2.8D-01, r^2= 8.9D+00
   Bfn.  Coefficient  Atom+Function         Bfn.  Coefficient  Atom+Function  
  ----- ------------  ---------------      ----- ------------  ---------------
    87     -3.623956  4 H  s                106      3.623970  5 H  s          
    16      3.425839  1 C  py                86     -2.248819  4 H  s          
   105      2.248828  5 H  s                 12      1.186522  1 C  py         
    85     -0.371089  4 H  s                104      0.371090  5 H  s          
    31     -0.319100  1 C  dxy               95      0.238544  4 H  py         
 
 Vector   12  Occ=0.000000D+00  E= 8.373933D-02
              MO Center=  3.5D-02, -2.9D-06, -5.3D-02, r^2= 9.1D+00
   Bfn.  Coefficient  Atom+Function         Bfn.  Coefficient  Atom+Function  
  ----- ------------  ---------------      ----- ------------  ---------------
    49     -2.797772  2 H  s                 15      2.659570  1 C  px         
    87      2.556947  4 H  s                106      2.556925  5 H  s          
    68     -2.315976  3 H  s                 17      2.159499  1 C  pz         
    48     -1.736102  2 H  s                 86      1.586689  4 H  s          
   105      1.586675  5 H  s                 67     -1.437119  3 H  s          
 
 Vector   13  Occ=0.000000D+00  E= 1.140912D-01
              MO Center=  4.9D-06,  8.2D-12, -4.7D-06, r^2= 1.6D+01
   Bfn.  Coefficient  Atom+Function         Bfn.  Coefficient  Atom+Function  
  ----- ------------  ---------------      ----- ------------  ---------------
    14     15.430825  1 C  s                 49     -2.921134  2 H  s          
    68     -2.921173  3 H  s                 87     -2.921130  4 H  s          
   106     -2.921130  5 H  s                 10      2.526481  1 C  s          
    48     -1.658754  2 H  s                 67     -1.658759  3 H  s          
    86     -1.658739  4 H  s                105     -1.658739  5 H  s          
 
 Vector   14  Occ=0.000000D+00  E= 1.794136D-01
              MO Center= -8.3D-01,  1.4D-05, -5.9D-01, r^2= 9.1D+00
   Bfn.  Coefficient  Atom+Function         Bfn.  Coefficient  Atom+Function  
  ----- ------------  ---------------      ----- ------------  ---------------
    87      4.305601  4 H  s                106     -4.305559  5 H  s          
    86     -3.016586  4 H  s                105      3.016557  5 H  s          
    12      2.329106  1 C  py                16     -1.971595  1 C  py         
    85     -0.540486  4 H  s                104      0.540481  5 H  s          
    31     -0.347566  1 C  dxy               95      0.330420  4 H  py         
 
 Vector   15  Occ=0.000000D+00  E= 1.794137D-01
              MO Center=  1.1D+00, -2.8D-06, -1.8D-01, r^2= 8.9D+00
   Bfn.  Coefficient  Atom+Function         Bfn.  Coefficient  Atom+Function  
  ----- ------------  ---------------      ----- ------------  ---------------
    68      5.207144  3 H  s                 67     -3.648321  3 H  s          
    49     -2.520203  2 H  s                 11      2.045916  1 C  px         
    48      1.765660  2 H  s                 15     -1.731843  1 C  px         
    87     -1.343490  4 H  s                106     -1.343517  5 H  s          
    13     -1.113135  1 C  pz                17      0.942264  1 C  pz         
 
 Vector   16  Occ=0.000000D+00  E= 1.794138D-01
              MO Center= -3.0D-01, -1.1D-05,  7.7D-01, r^2= 9.5D+00
   Bfn.  Coefficient  Atom+Function         Bfn.  Coefficient  Atom+Function  
  ----- ------------  ---------------      ----- ------------  ---------------
    49      4.632018  2 H  s                 48     -3.245332  2 H  s          
    87     -2.731991  4 H  s                106     -2.732043  5 H  s          
    13      2.045912  1 C  pz                86      1.914113  4 H  s          
   105      1.914149  5 H  s                 17     -1.731840  1 C  pz         
    11      1.113150  1 C  px                15     -0.942252  1 C  px         
 
 Vector   17  Occ=0.000000D+00  E= 2.396411D-01
              MO Center= -8.1D-06, -5.0D-11,  2.0D-06, r^2= 9.8D+00
   Bfn.  Coefficient  Atom+Function         Bfn.  Coefficient  Atom+Function  
  ----- ------------  ---------------      ----- ------------  ---------------
    14     20.637896  1 C  s                 10     10.974875  1 C  s          
    48     -6.641269  2 H  s                 67     -6.641186  3 H  s          
    86     -6.641280  4 H  s                105     -6.641280  5 H  s          
    49     -2.694207  2 H  s                 68     -2.694179  3 H  s          
    87     -2.694196  4 H  s                106     -2.694196  5 H  s          
 
 Vector   18  Occ=0.000000D+00  E= 2.693105D-01
              MO Center= -7.3D-06, -4.5D-11, -4.6D-06, r^2= 3.3D+00
   Bfn.  Coefficient  Atom+Function         Bfn.  Coefficient  Atom+Function  
  ----- ------------  ---------------      ----- ------------  ---------------
    56      0.466901  2 H  px                77      0.440189  3 H  pz         
    94     -0.311277  4 H  px               113     -0.311281  5 H  px         
    95     -0.269556  4 H  py               114      0.269556  5 H  py         
    96     -0.220113  4 H  pz               115     -0.220108  5 H  pz         
    75      0.155659  3 H  px                32      0.075234  1 C  dxz        
 
 Vector   19  Occ=0.000000D+00  E= 2.693111D-01
              MO Center= -5.6D-07, -3.1D-11, -1.3D-07, r^2= 3.3D+00
   Bfn.  Coefficient  Atom+Function         Bfn.  Coefficient  Atom+Function  
  ----- ------------  ---------------      ----- ------------  ---------------
    57      0.466899  2 H  py                76     -0.466896  3 H  py         
    96      0.381220  4 H  pz               115     -0.381223  5 H  pz         
    94     -0.269563  4 H  px               113      0.269559  5 H  px         
    34      0.075271  1 C  dyz               31     -0.053226  1 C  dxy        
    28      0.046269  1 C  dyz               25     -0.032715  1 C  dxy        
 
 Vector   20  Occ=0.000000D+00  E= 2.990253D-01
              MO Center= -2.6D-01,  1.1D-06, -4.4D-02, r^2= 7.1D+00
   Bfn.  Coefficient  Atom+Function         Bfn.  Coefficient  Atom+Function  
  ----- ------------  ---------------      ----- ------------  ---------------
    67      6.679575  3 H  s                 48     -4.727451  2 H  s          
    11     -3.046948  1 C  px                13      2.660939  1 C  pz         
    15     -1.646512  1 C  px                17      1.437906  1 C  pz         
    75     -1.328354  3 H  px                30     -1.121072  1 C  dxx        
    66      0.996772  3 H  s                 32      0.980146  1 C  dxz        
 
 Vector   21  Occ=0.000000D+00  E= 2.990256D-01
              MO Center=  2.1D-01, -3.4D-06,  1.5D-01, r^2= 7.1D+00
   Bfn.  Coefficient  Atom+Function         Bfn.  Coefficient  Atom+Function  
  ----- ------------  ---------------      ----- ------------  ---------------
    86      5.868191  4 H  s                105     -5.868135  5 H  s          
    12     -4.045297  1 C  py                16     -2.185969  1 C  py         
    31      1.840334  1 C  dxy               34      1.301292  1 C  dyz        
    85      0.875691  4 H  s                104     -0.875683  5 H  s          
    95     -0.855552  4 H  py               114     -0.855541  5 H  py         
 
 Vector   22  Occ=0.000000D+00  E= 2.990262D-01
              MO Center=  5.6D-02,  2.3D-06, -1.0D-01, r^2= 7.2D+00
   Bfn.  Coefficient  Atom+Function         Bfn.  Coefficient  Atom+Function  
  ----- ------------  ---------------      ----- ------------  ---------------
    48      5.413328  2 H  s                 86     -4.032915  4 H  s          
   105     -4.032970  5 H  s                 13     -3.046946  1 C  pz         
    11     -2.660955  1 C  px                67      2.652741  3 H  s          
    17     -1.646505  1 C  pz                15     -1.437934  1 C  px         
    58     -1.103420  2 H  pz                33      1.095334  1 C  dyy        
 
 Vector   23  Occ=0.000000D+00  E= 4.743796D-01
              MO Center= -6.7D-06,  1.7D-10,  3.6D-06, r^2= 7.1D+00
   Bfn.  Coefficient  Atom+Function         Bfn.  Coefficient  Atom+Function  
  ----- ------------  ---------------      ----- ------------  ---------------
    30     -3.180602  1 C  dxx               33     -3.180580  1 C  dyy        
    35     -3.180572  1 C  dzz               14      3.063474  1 C  s          
    48      2.868790  2 H  s                 67      2.868710  3 H  s          
    86      2.868764  4 H  s                105      2.868764  5 H  s          
    10     -1.376769  1 C  s                 49     -0.914604  2 H  s          
 
 Vector   24  Occ=0.000000D+00  E= 5.021204D-01
              MO Center=  3.8D-02, -6.2D-06, -3.5D-01, r^2= 4.1D+00
   Bfn.  Coefficient  Atom+Function         Bfn.  Coefficient  Atom+Function  
  ----- ------------  ---------------      ----- ------------  ---------------
    76      1.165206  3 H  py                94     -0.968918  4 H  px         
   113      0.968930  5 H  px                95     -0.512936  4 H  py         
   114     -0.512936  5 H  py                57     -0.139330  2 H  py         
    96      0.113728  4 H  pz               115     -0.113744  5 H  pz         
    73     -0.053585  3 H  py                91      0.044558  4 H  px         
 
 Vector   25  Occ=0.000000D+00  E= 5.021206D-01
              MO Center=  2.5D-01, -9.7D-06,  1.8D-01, r^2= 4.1D+00
   Bfn.  Coefficient  Atom+Function         Bfn.  Coefficient  Atom+Function  
  ----- ------------  ---------------      ----- ------------  ---------------
    56      1.194825  2 H  px                77     -1.126457  3 H  pz         
    96      0.563200  4 H  pz               115      0.563263  5 H  pz         
    75     -0.398293  3 H  px                94     -0.398281  4 H  px         
   113     -0.398245  5 H  px                53     -0.054945  2 H  px         
    74      0.051802  3 H  pz                41      0.030843  1 C  fxzz       
 
 Vector   26  Occ=0.000000D+00  E= 5.021210D-01
              MO Center= -2.9D-01,  1.6D-05,  1.7D-01, r^2= 4.1D+00
   Bfn.  Coefficient  Atom+Function         Bfn.  Coefficient  Atom+Function  
  ----- ------------  ---------------      ----- ------------  ---------------
    57      1.186655  2 H  py                96     -0.968920  4 H  pz         
   115      0.968882  5 H  pz                95     -0.461236  4 H  py         
   114     -0.461236  5 H  py                76     -0.264200  3 H  py         
    94     -0.113732  4 H  px               113      0.113760  5 H  px         
    54     -0.054569  2 H  py                93      0.044557  4 H  pz         
 
 Vector   27  Occ=0.000000D+00  E= 5.256269D-01
              MO Center=  3.9D-06,  7.0D-11, -1.1D-05, r^2= 6.7D+00
   Bfn.  Coefficient  Atom+Function         Bfn.  Coefficient  Atom+Function  
  ----- ------------  ---------------      ----- ------------  ---------------
    10     19.999786  1 C  s                 14     18.558394  1 C  s          
    48     -7.909928  2 H  s                 67     -7.910216  3 H  s          
    86     -7.910001  4 H  s                105     -7.910001  5 H  s          
    49     -2.242362  2 H  s                 68     -2.242128  3 H  s          
    87     -2.242307  4 H  s                106     -2.242307  5 H  s          
 
 Vector   28  Occ=0.000000D+00  E= 5.480775D-01
              MO Center=  1.9D-02, -1.1D-08, -3.4D-03, r^2= 4.8D+00
   Bfn.  Coefficient  Atom+Function         Bfn.  Coefficient  Atom+Function  
  ----- ------------  ---------------      ----- ------------  ---------------
    67      4.485996  3 H  s                 11     -3.298048  1 C  px         
    68     -2.340878  3 H  s                 48     -2.129423  2 H  s          
    75     -2.117563  3 H  px                13      1.752949  1 C  pz         
    32     -1.306453  1 C  dxz               30      1.271010  1 C  dxx        
    86     -1.178908  4 H  s                105     -1.178913  5 H  s          
 
 Vector   29  Occ=0.000000D+00  E= 5.480783D-01
              MO Center= -1.4D-02, -1.0D-07, -1.0D-02, r^2= 4.8D+00
   Bfn.  Coefficient  Atom+Function         Bfn.  Coefficient  Atom+Function  
  ----- ------------  ---------------      ----- ------------  ---------------
    12      3.734860  1 C  py                86     -3.703792  4 H  s          
   105      3.703807  5 H  s                 31      2.092445  1 C  dxy        
    87      1.932503  4 H  s                106     -1.932511  5 H  s          
    34      1.479646  1 C  dyz               95      1.253492  4 H  py         
   114      1.253500  5 H  py                94     -1.131821  4 H  px         
 
 Vector   30  Occ=0.000000D+00  E= 5.480791D-01
              MO Center= -5.2D-03,  1.1D-07,  1.3D-02, r^2= 4.8D+00
   Bfn.  Coefficient  Atom+Function         Bfn.  Coefficient  Atom+Function  
  ----- ------------  ---------------      ----- ------------  ---------------
    48      4.005762  2 H  s                 13     -3.297995  1 C  pz         
    86     -2.338793  4 H  s                105     -2.338766  5 H  s          
    49     -2.089959  2 H  s                 58     -1.972448  2 H  pz         
    11     -1.753005  1 C  px                35      1.306465  1 C  dzz        
    95      1.237924  4 H  py               114     -1.237915  5 H  py         
 
 Vector   31  Occ=0.000000D+00  E= 5.713813D-01
              MO Center=  4.8D-03,  6.2D-07, -6.6D-03, r^2= 5.2D+00
   Bfn.  Coefficient  Atom+Function         Bfn.  Coefficient  Atom+Function  
  ----- ------------  ---------------      ----- ------------  ---------------
    67      2.689753  3 H  s                 86     -2.558012  4 H  s          
   105     -2.557992  5 H  s                 48      2.425899  2 H  s          
    33      1.892668  1 C  dyy               32      1.830423  1 C  dxz        
    68     -1.623367  3 H  s                 87      1.543684  4 H  s          
   106      1.543672  5 H  s                 49     -1.464106  2 H  s          
 
 Vector   32  Occ=0.000000D+00  E= 5.713826D-01
              MO Center=  8.7D-02, -1.1D-07,  7.1D-02, r^2= 5.2D+00
   Bfn.  Coefficient  Atom+Function         Bfn.  Coefficient  Atom+Function  
  ----- ------------  ---------------      ----- ------------  ---------------
    48      3.710809  2 H  s                 67     -3.524067  3 H  s          
    49     -2.239454  2 H  s                 68      2.126821  3 H  s          
    35     -1.830464  1 C  dzz               30      1.761425  1 C  dxx        
    13     -1.378254  1 C  pz                32     -1.196732  1 C  dxz        
    96     -1.149044  4 H  pz               115     -1.149042  5 H  pz         
 
 Vector   33  Occ=0.000000D+00  E= 5.713830D-01
              MO Center= -9.1D-02, -5.1D-07, -6.5D-02, r^2= 5.2D+00
   Bfn.  Coefficient  Atom+Function         Bfn.  Coefficient  Atom+Function  
  ----- ------------  ---------------      ----- ------------  ---------------
    86      3.619947  4 H  s                105     -3.619958  5 H  s          
    31      3.092699  1 C  dxy               34      2.186907  1 C  dyz        
    87     -2.184646  4 H  s                106      2.184653  5 H  s          
    12     -1.646739  1 C  py                57     -1.376072  2 H  py         
    76     -1.376050  3 H  py                95     -1.115581  4 H  py         
 
 Vector   34  Occ=0.000000D+00  E= 7.860994D-01
              MO Center=  2.6D-05, -6.0D-10, -3.3D-05, r^2= 4.8D+00
   Bfn.  Coefficient  Atom+Function         Bfn.  Coefficient  Atom+Function  
  ----- ------------  ---------------      ----- ------------  ---------------
    34      9.867045  1 C  dyz               31     -6.977056  1 C  dxy        
    57     -3.476986  2 H  py                76      3.477130  3 H  py         
    96     -2.838974  4 H  pz               115      2.838974  5 H  pz         
    94      2.007497  4 H  px               113     -2.007497  5 H  px         
    54      0.069202  2 H  py                73     -0.069206  3 H  py         
 
 Vector   35  Occ=0.000000D+00  E= 7.861004D-01
              MO Center=  9.4D-05, -6.2D-10,  4.9D-05, r^2= 4.8D+00
   Bfn.  Coefficient  Atom+Function         Bfn.  Coefficient  Atom+Function  
  ----- ------------  ---------------      ----- ------------  ---------------
    32      9.867154  1 C  dxz               30      3.488603  1 C  dxx        
    33     -3.488557  1 C  dyy               56     -3.477188  2 H  px         
    77     -3.278353  3 H  pz                94      2.317982  4 H  px         
   113      2.317981  5 H  px                95      2.007439  4 H  py         
   114     -2.007439  5 H  py                96      1.639017  4 H  pz         
 
 Vector   36  Occ=0.000000D+00  E= 7.937525D-01
              MO Center=  8.9D-02,  3.2D-07, -5.2D-02, r^2= 4.4D+00
   Bfn.  Coefficient  Atom+Function         Bfn.  Coefficient  Atom+Function  
  ----- ------------  ---------------      ----- ------------  ---------------
    11      7.655194  1 C  px                66     -3.075393  3 H  s          
    67     -2.290990  3 H  s                 56     -1.779346  2 H  px         
    94     -1.561993  4 H  px               113     -1.561995  5 H  px         
    85      1.343661  4 H  s                104      1.343650  5 H  s          
    86      1.000969  4 H  s                105      1.000960  5 H  s          
 
 Vector   37  Occ=0.000000D+00  E= 7.937548D-01
              MO Center= -7.7D-02, -1.2D-06, -5.4D-02, r^2= 4.4D+00
   Bfn.  Coefficient  Atom+Function         Bfn.  Coefficient  Atom+Function  
  ----- ------------  ---------------      ----- ------------  ---------------
    12      7.714088  1 C  py                85     -2.570943  4 H  s          
   104      2.570966  5 H  s                 86     -1.915259  4 H  s          
   105      1.915277  5 H  s                 57     -1.793316  2 H  py         
    76     -1.793052  3 H  py                31     -1.074904  1 C  dxy        
    95     -1.072016  4 H  py               114     -1.072010  5 H  py         
 
 Vector   38  Occ=0.000000D+00  E= 7.937551D-01
              MO Center= -1.2D-02,  8.9D-07,  1.1D-01, r^2= 4.4D+00
   Bfn.  Coefficient  Atom+Function         Bfn.  Coefficient  Atom+Function  
  ----- ------------  ---------------      ----- ------------  ---------------
    13      7.655268  1 C  pz                47     -3.124785  2 H  s          
    48     -2.327868  2 H  s                 77     -1.701908  3 H  pz         
    96     -1.639377  4 H  pz               115     -1.639381  5 H  pz         
    85      1.224606  4 H  s                104      1.224570  5 H  s          
    11      0.951010  1 C  px                86      0.912268  4 H  s          
 
 Vector   39  Occ=0.000000D+00  E= 8.612345D-01
              MO Center= -5.0D-01, -8.0D-06, -3.5D-01, r^2= 4.7D+00
   Bfn.  Coefficient  Atom+Function         Bfn.  Coefficient  Atom+Function  
  ----- ------------  ---------------      ----- ------------  ---------------
    86     -7.671708  4 H  s                105      7.671779  5 H  s          
    12      7.474119  1 C  py                85     -3.758086  4 H  s          
   104      3.758120  5 H  s                 31     -3.129032  1 C  dxy        
    95      2.437195  4 H  py               114      2.437219  5 H  py         
    34     -2.212465  1 C  dyz               94     -1.502835  4 H  px         
 
 Vector   40  Occ=0.000000D+00  E= 8.612357D-01
              MO Center=  1.8D-01,  2.9D-06,  6.5D-01, r^2= 4.7D+00
   Bfn.  Coefficient  Atom+Function         Bfn.  Coefficient  Atom+Function  
  ----- ------------  ---------------      ----- ------------  ---------------
    48      9.156393  2 H  s                 13     -7.283603  1 C  pz         
    67     -5.039496  3 H  s                 47      4.485396  2 H  s          
    58     -3.643397  2 H  pz                66     -2.468657  3 H  s          
    35     -2.156118  1 C  dzz               86     -2.058575  4 H  s          
   105     -2.058479  5 H  s                 75      1.937205  3 H  px         
 
 Vector   41  Occ=0.000000D+00  E= 8.612363D-01
              MO Center=  3.2D-01,  5.1D-06, -3.0D-01, r^2= 4.9D+00
   Bfn.  Coefficient  Atom+Function         Bfn.  Coefficient  Atom+Function  
  ----- ------------  ---------------      ----- ------------  ---------------
    67     -7.930178  3 H  s                 11      7.283729  1 C  px         
    86      5.019008  4 H  s                105      5.018939  5 H  s          
    66     -3.884729  3 H  s                 75      2.945356  3 H  px         
    85      2.458644  4 H  s                104      2.458610  5 H  s          
    32     -2.156111  1 C  dxz               48     -2.107899  2 H  s          
 
 Vector   42  Occ=0.000000D+00  E= 9.835745D-01
              MO Center= -1.1D-05, -4.1D-13,  5.2D-06, r^2= 5.3D+00
   Bfn.  Coefficient  Atom+Function         Bfn.  Coefficient  Atom+Function  
  ----- ------------  ---------------      ----- ------------  ---------------
    10     33.436934  1 C  s                 14     12.773419  1 C  s          
    48     -8.672010  2 H  s                 67     -8.671874  3 H  s          
    86     -8.671980  4 H  s                105     -8.671980  5 H  s          
    47     -3.710074  2 H  s                 66     -3.709987  3 H  s          
    85     -3.710045  4 H  s                104     -3.710045  5 H  s          
 
 Vector   43  Occ=0.000000D+00  E= 1.296482D+00
              MO Center=  5.7D-06,  2.5D-11, -3.4D-07, r^2= 3.8D+00
   Bfn.  Coefficient  Atom+Function         Bfn.  Coefficient  Atom+Function  
  ----- ------------  ---------------      ----- ------------  ---------------
    10     11.731001  1 C  s                 14      4.586172  1 C  s          
    30     -4.501083  1 C  dxx               33     -4.501117  1 C  dyy        
    35     -4.501105  1 C  dzz                6     -4.134602  1 C  s          
    24     -1.293132  1 C  dxx               27     -1.293112  1 C  dyy        
    29     -1.293124  1 C  dzz               48      1.206977  2 H  s          
 
 Vector   44  Occ=0.000000D+00  E= 1.351506D+00
              MO Center= -8.7D-07,  7.5D-11, -8.6D-07, r^2= 1.8D+00
   Bfn.  Coefficient  Atom+Function         Bfn.  Coefficient  Atom+Function  
  ----- ------------  ---------------      ----- ------------  ---------------
    32      2.570542  1 C  dxz               26     -0.979658  1 C  dxz        
    30      0.908925  1 C  dxx               33     -0.908713  1 C  dyy        
    56     -0.523865  2 H  px                77     -0.493904  3 H  pz         
    94      0.349247  4 H  px               113      0.349249  5 H  px         
    24     -0.346337  1 C  dxx               27      0.346392  1 C  dyy        
 
 Vector   45  Occ=0.000000D+00  E= 1.351506D+00
              MO Center= -2.0D-07,  7.1D-11,  8.1D-07, r^2= 1.8D+00
   Bfn.  Coefficient  Atom+Function         Bfn.  Coefficient  Atom+Function  
  ----- ------------  ---------------      ----- ------------  ---------------
    34      2.570452  1 C  dyz               31     -1.817593  1 C  dxy        
    28     -0.979665  1 C  dyz               25      0.692725  1 C  dxy        
    57     -0.523839  2 H  py                76      0.523842  3 H  py         
    96     -0.427709  4 H  pz               115      0.427710  5 H  pz         
    54     -0.333521  2 H  py                73      0.333519  3 H  py         
 
 Vector   46  Occ=0.000000D+00  E= 1.688413D+00
              MO Center=  7.0D-02, -2.3D-07, -3.8D-02, r^2= 2.7D+00
   Bfn.  Coefficient  Atom+Function         Bfn.  Coefficient  Atom+Function  
  ----- ------------  ---------------      ----- ------------  ---------------
    11      4.961612  1 C  px                67     -4.965497  3 H  s          
    66     -3.416388  3 H  s                 75      2.217753  3 H  px         
    86      2.056528  4 H  s                105      2.056547  5 H  s          
    68      1.831589  3 H  s                 85      1.414945  4 H  s          
   104      1.414959  5 H  s                 26     -0.906020  1 C  dxz        
 
 Vector   47  Occ=0.000000D+00  E= 1.688415D+00
              MO Center= -1.2D-02, -3.0D-07,  7.9D-02, r^2= 2.7D+00
   Bfn.  Coefficient  Atom+Function         Bfn.  Coefficient  Atom+Function  
  ----- ------------  ---------------      ----- ------------  ---------------
    13      4.961648  1 C  pz                48     -4.965384  2 H  s          
    47     -3.416345  2 H  s                 58      2.347280  2 H  pz         
    86      2.056930  4 H  s                105      2.056955  5 H  s          
    49      1.831533  2 H  s                 85      1.415223  4 H  s          
   104      1.415240  5 H  s                 29      0.906035  1 C  dzz        
 
 Vector   48  Occ=0.000000D+00  E= 1.688416D+00
              MO Center= -5.8D-02,  5.4D-07, -4.1D-02, r^2= 2.7D+00
   Bfn.  Coefficient  Atom+Function         Bfn.  Coefficient  Atom+Function  
  ----- ------------  ---------------      ----- ------------  ---------------
    12      5.034215  1 C  py                86     -4.113536  4 H  s          
   105      4.113514  5 H  s                 85     -2.830228  4 H  s          
   104      2.830213  5 H  s                 95      1.615281  4 H  py         
   114      1.615273  5 H  py                87      1.517319  4 H  s          
   106     -1.517311  5 H  s                 25     -1.300075  1 C  dxy        
 
 Vector   49  Occ=0.000000D+00  E= 1.766311D+00
              MO Center=  8.2D-02,  7.7D-05, -2.8D-01, r^2= 2.1D+00
   Bfn.  Coefficient  Atom+Function         Bfn.  Coefficient  Atom+Function  
  ----- ------------  ---------------      ----- ------------  ---------------
    73      0.767247  3 H  py                76     -0.743143  3 H  py         
    91     -0.589514  4 H  px               110      0.589433  5 H  px         
    94      0.570951  4 H  px               113     -0.570873  5 H  px         
    54     -0.259807  2 H  py                92     -0.253726  4 H  py         
   111     -0.253726  5 H  py                57      0.251634  2 H  py         
 
 Vector   50  Occ=0.000000D+00  E= 1.766311D+00
              MO Center=  2.4D-01, -7.3D-05,  1.7D-01, r^2= 2.1D+00
   Bfn.  Coefficient  Atom+Function         Bfn.  Coefficient  Atom+Function  
  ----- ------------  ---------------      ----- ------------  ---------------
    53      0.767274  2 H  px                56     -0.743156  2 H  px         
    74     -0.723386  3 H  pz                77      0.700669  3 H  pz         
    93      0.361664  4 H  pz               112      0.361717  5 H  pz         
    96     -0.350306  4 H  pz               115     -0.350358  5 H  pz         
    72     -0.255764  3 H  px                91     -0.255658  4 H  px         
 
 Vector   51  Occ=0.000000D+00  E= 1.766312D+00
              MO Center= -3.2D-01, -4.1D-06,  1.1D-01, r^2= 2.1D+00
   Bfn.  Coefficient  Atom+Function         Bfn.  Coefficient  Atom+Function  
  ----- ------------  ---------------      ----- ------------  ---------------
    54      0.721939  2 H  py                57     -0.699256  2 H  py         
    93     -0.589465  4 H  pz               112      0.589473  5 H  pz         
    96      0.570928  4 H  pz               115     -0.570936  5 H  pz         
    92     -0.363120  4 H  py               111     -0.363120  5 H  py         
    95      0.351733  4 H  py               114      0.351733  5 H  py         
 
 Vector   52  Occ=0.000000D+00  E= 2.076719D+00
              MO Center=  3.7D-03,  2.7D-07, -8.2D-03, r^2= 2.3D+00
   Bfn.  Coefficient  Atom+Function         Bfn.  Coefficient  Atom+Function  
  ----- ------------  ---------------      ----- ------------  ---------------
    13      3.462516  1 C  pz                47     -2.635902  2 H  s          
    48     -2.472806  2 H  s                 11      2.254205  1 C  px         
    85      1.687465  4 H  s                104      1.687523  5 H  s          
    86      1.583070  4 H  s                105      1.583125  5 H  s          
    58      1.301282  2 H  pz                29      1.181733  1 C  dzz        
 
 Vector   53  Occ=0.000000D+00  E= 2.076721D+00
              MO Center=  1.0D-02, -1.5D-07,  7.4D-03, r^2= 2.3D+00
   Bfn.  Coefficient  Atom+Function         Bfn.  Coefficient  Atom+Function  
  ----- ------------  ---------------      ----- ------------  ---------------
    12      4.131604  1 C  py                85     -2.568035  4 H  s          
   104      2.568014  5 H  s                 86     -2.409157  4 H  s          
   105      2.409138  5 H  s                 25     -1.994145  1 C  dxy        
    28     -1.410067  1 C  dyz                8      1.079712  1 C  py         
    94     -0.966939  4 H  px               113      0.966923  5 H  px         
 
 Vector   54  Occ=0.000000D+00  E= 2.076723D+00
              MO Center= -1.4D-02, -1.2D-07,  7.9D-04, r^2= 2.3D+00
   Bfn.  Coefficient  Atom+Function         Bfn.  Coefficient  Atom+Function  
  ----- ------------  ---------------      ----- ------------  ---------------
    11      3.462589  1 C  px                66     -3.057180  3 H  s          
    67     -2.868034  3 H  s                 13     -2.254259  1 C  pz         
    47      1.716069  2 H  s                 48      1.609879  2 H  s          
    75      1.498114  3 H  px                24      1.220279  1 C  dxx        
    26     -1.181732  1 C  dxz                7      0.904874  1 C  px         
 
 Vector   55  Occ=0.000000D+00  E= 2.299894D+00
              MO Center=  1.2D-05,  9.9D-10,  1.1D-05, r^2= 3.4D+00
   Bfn.  Coefficient  Atom+Function         Bfn.  Coefficient  Atom+Function  
  ----- ------------  ---------------      ----- ------------  ---------------
    10     30.630579  1 C  s                 47     -6.690158  2 H  s          
    66     -6.690056  3 H  s                 85     -6.689800  4 H  s          
   104     -6.689800  5 H  s                 14      6.260399  1 C  s          
    48     -5.990124  2 H  s                 67     -5.990070  3 H  s          
    86     -5.989912  4 H  s                105     -5.989912  5 H  s          
 
 Vector   56  Occ=0.000000D+00  E= 2.424971D+00
              MO Center=  1.4D-01,  1.8D-06,  4.1D-01, r^2= 2.8D+00
   Bfn.  Coefficient  Atom+Function         Bfn.  Coefficient  Atom+Function  
  ----- ------------  ---------------      ----- ------------  ---------------
    47      9.782303  2 H  s                 13     -8.798630  1 C  pz         
    48      6.828670  2 H  s                 66     -5.713673  3 H  s          
    67     -3.988539  3 H  s                 58     -2.788227  2 H  pz         
    35     -2.605579  1 C  dzz               11      2.339972  1 C  px         
     9     -2.256217  1 C  pz                55     -2.165181  2 H  pz         
 
 Vector   57  Occ=0.000000D+00  E= 2.424976D+00
              MO Center= -3.2D-01,  3.3D-05, -2.3D-01, r^2= 2.8D+00
   Bfn.  Coefficient  Atom+Function         Bfn.  Coefficient  Atom+Function  
  ----- ------------  ---------------      ----- ------------  ---------------
    12      9.104402  1 C  py                85     -8.265082  4 H  s          
   104      8.264593  5 H  s                 86     -5.769623  4 H  s          
   105      5.769282  5 H  s                 31     -3.812540  1 C  dxy        
    40      3.340956  1 C  fxyz              25     -2.864700  1 C  dxy        
    34     -2.696751  1 C  dyz                8      2.334590  1 C  py         
 
 Vector   58  Occ=0.000000D+00  E= 2.424978D+00
              MO Center=  1.9D-01, -3.5D-05, -1.8D-01, r^2= 2.9D+00
   Bfn.  Coefficient  Atom+Function         Bfn.  Coefficient  Atom+Function  
  ----- ------------  ---------------      ----- ------------  ---------------
    11      8.798675  1 C  px                66     -8.355573  3 H  s          
    67     -5.832731  3 H  s                 85      5.478352  4 H  s          
   104      5.479129  5 H  s                 86      3.824329  4 H  s          
   105      3.824872  5 H  s                 32     -2.604803  1 C  dxz        
    47     -2.601446  2 H  s                 13      2.339951  1 C  pz         
 
 Vector   59  Occ=0.000000D+00  E= 2.429723D+00
              MO Center=  6.4D-06, -2.9D-10, -7.9D-06, r^2= 2.0D+00
   Bfn.  Coefficient  Atom+Function         Bfn.  Coefficient  Atom+Function  
  ----- ------------  ---------------      ----- ------------  ---------------
    34      2.808901  1 C  dyz               31     -1.987497  1 C  dxy        
    28     -1.221857  1 C  dyz               57     -1.152688  2 H  py         
    76      1.152542  3 H  py                96     -0.941298  4 H  pz         
   115      0.941303  5 H  pz                25      0.862976  1 C  dxy        
    94      0.665181  4 H  px               113     -0.665175  5 H  px         
 
 Vector   60  Occ=0.000000D+00  E= 2.429725D+00
              MO Center=  1.5D-05, -7.1D-11,  7.1D-06, r^2= 2.0D+00
   Bfn.  Coefficient  Atom+Function         Bfn.  Coefficient  Atom+Function  
  ----- ------------  ---------------      ----- ------------  ---------------
    32      2.810159  1 C  dxz               26     -1.220906  1 C  dxz        
    56     -1.152543  2 H  px                77     -1.086478  3 H  pz         
    30      0.993251  1 C  dxx               33     -0.992499  1 C  dyy        
    94      0.768178  4 H  px               113      0.768183  5 H  px         
    95      0.665985  4 H  py               114     -0.665985  5 H  py         
 
 Vector   61  Occ=0.000000D+00  E= 2.548014D+00
              MO Center=  3.1D-01,  6.4D-06, -2.0D-01, r^2= 1.8D+00
   Bfn.  Coefficient  Atom+Function         Bfn.  Coefficient  Atom+Function  
  ----- ------------  ---------------      ----- ------------  ---------------
    11      2.994581  1 C  px                66     -2.827969  3 H  s          
    72      1.343091  3 H  px                85      1.324049  4 H  s          
   104      1.323993  5 H  s                 26     -1.112255  1 C  dxz        
    24      0.820581  1 C  dxx               27     -0.752366  1 C  dyy        
    56     -0.661555  2 H  px                 3      0.613311  1 C  px         
 
 Vector   62  Occ=0.000000D+00  E= 2.548016D+00
              MO Center= -2.9D-01,  9.9D-06, -2.0D-01, r^2= 1.8D+00
   Bfn.  Coefficient  Atom+Function         Bfn.  Coefficient  Atom+Function  
  ----- ------------  ---------------      ----- ------------  ---------------
    12      3.000310  1 C  py                85     -2.401775  4 H  s          
   104      2.401728  5 H  s                 25     -1.575967  1 C  dxy        
    28     -1.114360  1 C  dyz               92      1.032122  4 H  py         
   111      1.032105  5 H  py                57     -0.662801  2 H  py         
    76     -0.662796  3 H  py                 4      0.614463  1 C  py         
 
 Vector   63  Occ=0.000000D+00  E= 2.548017D+00
              MO Center= -2.4D-02, -1.6D-05,  4.1D-01, r^2= 1.8D+00
   Bfn.  Coefficient  Atom+Function         Bfn.  Coefficient  Atom+Function  
  ----- ------------  ---------------      ----- ------------  ---------------
    13      2.994548  1 C  pz                47     -2.935822  2 H  s          
    55      1.462084  2 H  pz                29      1.112232  1 C  dzz        
    85      1.063551  4 H  s                104      1.063728  5 H  s          
    66      0.808742  3 H  s                 77     -0.639914  3 H  pz         
    96     -0.633088  4 H  pz               115     -0.633084  5 H  pz         
 
 Vector   64  Occ=0.000000D+00  E= 2.842478D+00
              MO Center=  1.2D-05, -2.8D-10, -1.7D-06, r^2= 2.4D+00
   Bfn.  Coefficient  Atom+Function         Bfn.  Coefficient  Atom+Function  
  ----- ------------  ---------------      ----- ------------  ---------------
    10     12.450977  1 C  s                 47     -4.222197  2 H  s          
    66     -4.222307  3 H  s                 85     -4.222210  4 H  s          
   104     -4.222210  5 H  s                 55      1.449845  2 H  pz         
    30     -1.373551  1 C  dxx               33     -1.373562  1 C  dyy        
    35     -1.373569  1 C  dzz               72      1.366992  3 H  px         
 
 Vector   65  Occ=0.000000D+00  E= 2.933762D+00
              MO Center= -1.3D-01, -1.3D-08, -2.7D-02, r^2= 1.6D+00
   Bfn.  Coefficient  Atom+Function         Bfn.  Coefficient  Atom+Function  
  ----- ------------  ---------------      ----- ------------  ---------------
    66      2.002212  3 H  s                 47     -1.470620  2 H  s          
    72     -1.301602  3 H  px                 7     -1.127703  1 C  px         
     9      1.033844  1 C  pz                24     -0.997778  1 C  dxx        
    55      0.982246  2 H  pz                26      0.856124  1 C  dxz        
    75     -0.806894  3 H  px                67      0.791839  3 H  s          
 
 Vector   66  Occ=0.000000D+00  E= 2.933766D+00
              MO Center=  1.0D-01,  3.0D-06,  7.3D-02, r^2= 1.6D+00
   Bfn.  Coefficient  Atom+Function         Bfn.  Coefficient  Atom+Function  
  ----- ------------  ---------------      ----- ------------  ---------------
    85      1.776689  4 H  s                104     -1.776719  5 H  s          
    25      1.642558  1 C  dxy                8     -1.529875  1 C  py         
    28      1.161449  1 C  dyz               92     -0.865082  4 H  py         
   111     -0.865102  5 H  py                44     -0.838757  1 C  fyzz       
    37     -0.799194  1 C  fxxy              42     -0.799232  1 C  fyyy       
 
 Vector   67  Occ=0.000000D+00  E= 2.933766D+00
              MO Center=  2.6D-02, -3.0D-06, -4.6D-02, r^2= 1.6D+00
   Bfn.  Coefficient  Atom+Function         Bfn.  Coefficient  Atom+Function  
  ----- ------------  ---------------      ----- ------------  ---------------
    47      1.603855  2 H  s                 85     -1.227996  4 H  s          
   104     -1.227952  5 H  s                  9     -1.127711  1 C  pz         
    55     -1.071338  2 H  pz                 7     -1.033833  1 C  px         
    27      0.983064  1 C  dyy               29     -0.856115  1 C  dzz        
    66      0.851591  3 H  s                 92      0.813241  4 H  py         
 
 Vector   68  Occ=0.000000D+00  E= 2.988772D+00
              MO Center= -2.2D-01,  8.1D-09, -1.4D-01, r^2= 1.4D+00
   Bfn.  Coefficient  Atom+Function         Bfn.  Coefficient  Atom+Function  
  ----- ------------  ---------------      ----- ------------  ---------------
    99     -0.741445  4 H  dxz              118      0.741445  5 H  dxz        
    37      0.704438  1 C  fxxy              44      0.613715  1 C  fyzz       
    60      0.496939  2 H  dxy               82      0.467562  3 H  dyz        
    42     -0.439325  1 C  fyyy              40      0.433932  1 C  fxyz       
    98     -0.265004  4 H  dxy              117     -0.265004  5 H  dxy        
 
 Vector   69  Occ=0.000000D+00  E= 2.988773D+00
              MO Center=  2.1D-01,  1.8D-06,  1.5D-01, r^2= 1.4D+00
   Bfn.  Coefficient  Atom+Function         Bfn.  Coefficient  Atom+Function  
  ----- ------------  ---------------      ----- ------------  ---------------
    41      1.015212  1 C  fxzz              80      0.434860  3 H  dxz        
    59     -0.411083  2 H  dxx               62      0.411083  2 H  dyy        
    81     -0.411090  3 H  dyy               38     -0.358911  1 C  fxxz       
    43      0.358955  1 C  fyyz             101     -0.311106  4 H  dyz        
   120      0.311103  5 H  dyz               83      0.294106  3 H  dzz        
 
 Vector   70  Occ=0.000000D+00  E= 2.988777D+00
              MO Center=  1.0D-02, -1.8D-06, -1.5D-02, r^2= 1.5D+00
   Bfn.  Coefficient  Atom+Function         Bfn.  Coefficient  Atom+Function  
  ----- ------------  ---------------      ----- ------------  ---------------
    37      0.853084  1 C  fxxy              44     -0.808759  1 C  fyzz       
    82      0.710786  3 H  dyz               60     -0.654973  2 H  dxy        
    40     -0.571880  1 C  fxyz             101     -0.445769  4 H  dyz        
   120     -0.445771  5 H  dyz               98      0.302362  4 H  dxy        
   117      0.302363  5 H  dxy               97      0.203904  4 H  dxx        
 
 Vector   71  Occ=0.000000D+00  E= 3.212395D+00
              MO Center= -8.3D-06, -1.0D-10,  9.7D-06, r^2= 1.8D+00
   Bfn.  Coefficient  Atom+Function         Bfn.  Coefficient  Atom+Function  
  ----- ------------  ---------------      ----- ------------  ---------------
    32      1.696317  1 C  dxz               99     -0.797650  4 H  dxz        
   118     -0.797649  5 H  dxz               30      0.599753  1 C  dxx        
    33     -0.599713  1 C  dyy               80     -0.491617  3 H  dxz        
    56     -0.485893  2 H  px                77     -0.458102  3 H  pz         
    59     -0.426283  2 H  dxx               62      0.426279  2 H  dyy        
 
 Vector   72  Occ=0.000000D+00  E= 3.212398D+00
              MO Center= -1.3D-05, -5.1D-11, -4.3D-06, r^2= 1.8D+00
   Bfn.  Coefficient  Atom+Function         Bfn.  Coefficient  Atom+Function  
  ----- ------------  ---------------      ----- ------------  ---------------
    34      1.696272  1 C  dyz               31     -1.199458  1 C  dxy        
    82     -0.899648  3 H  dyz               60      0.852544  2 H  dxy        
   101     -0.593641  4 H  dyz              120     -0.593642  5 H  dyz        
    57     -0.485884  2 H  py                76      0.485883  3 H  py         
    98      0.419762  4 H  dxy              117      0.419762  5 H  dxy        
 
 Vector   73  Occ=0.000000D+00  E= 3.363730D+00
              MO Center=  1.9D-06, -3.8D-12, -5.6D-07, r^2= 1.7D+00
   Bfn.  Coefficient  Atom+Function         Bfn.  Coefficient  Atom+Function  
  ----- ------------  ---------------      ----- ------------  ---------------
    10     12.841168  1 C  s                 24     -3.618300  1 C  dxx        
    27     -3.618305  1 C  dyy               29     -3.618305  1 C  dzz        
    14      3.544565  1 C  s                 30     -3.356296  1 C  dxx        
    33     -3.356303  1 C  dyy               35     -3.356301  1 C  dzz        
     6      1.930139  1 C  s                  2     -1.390986  1 C  s          
 
 Vector   74  Occ=0.000000D+00  E= 3.562298D+00
              MO Center=  7.9D-02,  2.7D-06, -1.7D-01, r^2= 1.6D+00
   Bfn.  Coefficient  Atom+Function         Bfn.  Coefficient  Atom+Function  
  ----- ------------  ---------------      ----- ------------  ---------------
    79      0.926987  3 H  dxy               37     -0.717272  1 C  fxxy       
    63     -0.432556  2 H  dyz               97      0.428250  4 H  dxx        
   116     -0.428247  5 H  dxx               44      0.386612  1 C  fyzz       
    60     -0.356310  2 H  dxy               82      0.337546  3 H  dyz        
    99     -0.306485  4 H  dxz              118      0.306483  5 H  dxz        
 
 Vector   75  Occ=0.000000D+00  E= 3.562303D+00
              MO Center=  2.3D-01, -2.1D-06,  1.6D-01, r^2= 1.6D+00
   Bfn.  Coefficient  Atom+Function         Bfn.  Coefficient  Atom+Function  
  ----- ------------  ---------------      ----- ------------  ---------------
    61      0.784707  2 H  dxz               41     -0.701331  1 C  fxzz       
    83      0.533890  3 H  dzz               80     -0.407188  3 H  dxz        
    59     -0.323189  2 H  dxx               62      0.323187  2 H  dyy        
    81     -0.323193  3 H  dyy               56     -0.306701  2 H  px         
    77      0.289165  3 H  pz                97      0.266943  4 H  dxx        
 
 Vector   76  Occ=0.000000D+00  E= 3.562307D+00
              MO Center= -3.1D-01, -6.0D-07,  1.4D-02, r^2= 1.6D+00
   Bfn.  Coefficient  Atom+Function         Bfn.  Coefficient  Atom+Function  
  ----- ------------  ---------------      ----- ------------  ---------------
    63      0.654714  2 H  dyz               44     -0.585140  1 C  fyzz       
    60      0.539312  2 H  dxy              100     -0.445065  4 H  dyy        
   119      0.445065  5 H  dyy               40     -0.413761  1 C  fxyz       
    98     -0.385051  4 H  dxy              102      0.385771  4 H  dzz        
   117     -0.385051  5 H  dxy              121     -0.385773  5 H  dzz        
 
 Vector   77  Occ=0.000000D+00  E= 3.954637D+00
              MO Center=  5.1D-02, -4.9D-07,  3.6D-02, r^2= 1.6D+00
   Bfn.  Coefficient  Atom+Function         Bfn.  Coefficient  Atom+Function  
  ----- ------------  ---------------      ----- ------------  ---------------
    40      1.442051  1 C  fxyz              82     -1.013104  3 H  dyz        
    60     -0.965181  2 H  dxy               25      0.908426  1 C  dxy        
    44     -0.902439  1 C  fyzz              31      0.798979  1 C  dxy        
    99     -0.658277  4 H  dxz              118      0.658281  5 H  dxz        
    28      0.642357  1 C  dyz               85      0.575432  4 H  s          
 
 Vector   78  Occ=0.000000D+00  E= 3.954639D+00
              MO Center=  1.3D-03,  4.1D-07, -7.2D-02, r^2= 1.6D+00
   Bfn.  Coefficient  Atom+Function         Bfn.  Coefficient  Atom+Function  
  ----- ------------  ---------------      ----- ------------  ---------------
    38      0.915682  1 C  fxxz              43      0.888867  1 C  fyyz       
    39     -0.713612  1 C  fxyy              47     -0.704659  2 H  s          
    98      0.660411  4 H  dxy              117     -0.660413  5 H  dxy        
    29      0.642255  1 C  dzz               35      0.564871  1 C  dzz        
    81      0.498553  3 H  dyy               58     -0.450848  2 H  pz         
 
 Vector   79  Occ=0.000000D+00  E= 3.954642D+00
              MO Center= -5.2D-02,  7.4D-08,  3.6D-02, r^2= 1.6D+00
   Bfn.  Coefficient  Atom+Function         Bfn.  Coefficient  Atom+Function  
  ----- ------------  ---------------      ----- ------------  ---------------
    41      0.902280  1 C  fxzz              43     -0.737702  1 C  fyyz       
    38      0.704110  1 C  fxxz              66     -0.668731  3 H  s          
   101      0.664563  4 H  dyz              120     -0.664563  5 H  dyz        
    26     -0.642251  1 C  dxz               99      0.629238  4 H  dxz        
   118      0.629237  5 H  dxz               32     -0.564869  1 C  dxz        
 
 Vector   80  Occ=0.000000D+00  E= 4.228568D+00
              MO Center= -7.1D-02,  3.2D-05, -5.0D-02, r^2= 1.5D+00
   Bfn.  Coefficient  Atom+Function         Bfn.  Coefficient  Atom+Function  
  ----- ------------  ---------------      ----- ------------  ---------------
    86      1.387195  4 H  s                105     -1.386830  5 H  s          
    12     -1.016056  1 C  py                37      0.934339  1 C  fxxy       
    42      0.934362  1 C  fyyy              63      0.844561  2 H  dyz        
    40      0.824904  1 C  fxyz              85      0.781967  4 H  s          
   104     -0.781761  5 H  s                 25      0.748911  1 C  dxy        
 
 Vector   81  Occ=0.000000D+00  E= 4.228568D+00
              MO Center= -9.7D-03, -3.2D-05,  1.5D-02, r^2= 1.5D+00
   Bfn.  Coefficient  Atom+Function         Bfn.  Coefficient  Atom+Function  
  ----- ------------  ---------------      ----- ------------  ---------------
    48      1.121326  2 H  s                 39      0.974142  1 C  fxyy       
    86     -0.975025  4 H  s                105     -0.975544  5 H  s          
    67      0.829253  3 H  s                 11     -0.763180  1 C  px         
    43      0.734114  1 C  fyyz              99     -0.696441  4 H  dxz        
   118     -0.696379  5 H  dxz               45      0.680946  1 C  fzzz       
 
 Vector   82  Occ=0.000000D+00  E= 4.228573D+00
              MO Center=  8.1D-02,  1.7D-09,  3.5D-02, r^2= 1.5D+00
   Bfn.  Coefficient  Atom+Function         Bfn.  Coefficient  Atom+Function  
  ----- ------------  ---------------      ----- ------------  ---------------
    67      1.482536  3 H  s                 48     -1.276019  2 H  s          
    80     -0.840623  3 H  dxz               66      0.835695  3 H  s          
    45     -0.774905  1 C  fzzz              13      0.763222  1 C  pz         
    38     -0.755077  1 C  fxxz              75     -0.747369  3 H  px         
    36      0.720048  1 C  fxxx              47     -0.719264  2 H  s          
 
 Vector   83  Occ=0.000000D+00  E= 4.610801D+00
              MO Center=  1.3D-04,  3.3D-09,  2.1D-05, r^2= 2.2D+00
   Bfn.  Coefficient  Atom+Function         Bfn.  Coefficient  Atom+Function  
  ----- ------------  ---------------      ----- ------------  ---------------
    10     17.139497  1 C  s                 47     -5.137070  2 H  s          
    66     -5.138007  3 H  s                 85     -5.136200  4 H  s          
   104     -5.136200  5 H  s                  6      4.824768  1 C  s          
    48     -3.311081  2 H  s                 67     -3.311588  3 H  s          
    86     -3.310593  4 H  s                105     -3.310593  5 H  s          
 
 Vector   84  Occ=0.000000D+00  E= 4.635521D+00
              MO Center=  4.0D-01, -2.6D-08,  2.3D-01, r^2= 2.2D+00
   Bfn.  Coefficient  Atom+Function         Bfn.  Coefficient  Atom+Function  
  ----- ------------  ---------------      ----- ------------  ---------------
    66     -8.942703  3 H  s                 47      8.359550  2 H  s          
    13     -6.303363  1 C  pz                67     -4.996132  3 H  s          
    11      4.924045  1 C  px                48      4.670376  2 H  s          
     9     -2.725043  1 C  pz                75      2.427551  3 H  px         
    72      2.336635  3 H  px                58     -2.320962  2 H  pz         
 
 Vector   85  Occ=0.000000D+00  E= 4.635530D+00
              MO Center= -2.4D-02,  2.7D-04,  3.6D-02, r^2= 2.4D+00
   Bfn.  Coefficient  Atom+Function         Bfn.  Coefficient  Atom+Function  
  ----- ------------  ---------------      ----- ------------  ---------------
    47     -6.529517  2 H  s                 11      6.303449  1 C  px         
    85      6.120380  4 H  s                104      6.115330  5 H  s          
    66     -5.704005  3 H  s                 13      4.924048  1 C  pz         
    48     -3.647885  2 H  s                 86      3.419410  4 H  s          
   105      3.416589  5 H  s                 67     -3.186691  3 H  s          
 
 Vector   86  Occ=0.000000D+00  E= 4.635530D+00
              MO Center= -3.7D-01, -2.7D-04, -2.6D-01, r^2= 2.2D+00
   Bfn.  Coefficient  Atom+Function         Bfn.  Coefficient  Atom+Function  
  ----- ------------  ---------------      ----- ------------  ---------------
    85     -8.659194  4 H  s                104      8.662761  5 H  s          
    12      7.998667  1 C  py                86     -4.837760  4 H  s          
   105      4.839753  5 H  s                  8      3.457914  1 C  py         
    25     -3.219620  1 C  dxy               31     -2.577630  1 C  dxy        
    28     -2.276610  1 C  dyz               92      1.848982  4 H  py         
 
 Vector   87  Occ=0.000000D+00  E= 4.950586D+00
              MO Center= -5.0D-02,  6.7D-09,  5.4D-03, r^2= 1.3D+00
   Bfn.  Coefficient  Atom+Function         Bfn.  Coefficient  Atom+Function  
  ----- ------------  ---------------      ----- ------------  ---------------
    44      3.745616  1 C  fyzz              40      2.648576  1 C  fxyz       
    42     -1.729974  1 C  fyyy              37      1.444371  1 C  fxxy       
    63      1.379684  2 H  dyz               99      1.045732  4 H  dxz        
   118     -1.045732  5 H  dxz               54     -0.744526  2 H  py         
   100     -0.623527  4 H  dyy              119      0.623527  5 H  dyy        
 
 Vector   88  Occ=0.000000D+00  E= 4.950598D+00
              MO Center=  1.3D-02,  1.7D-06, -3.2D-02, r^2= 1.3D+00
   Bfn.  Coefficient  Atom+Function         Bfn.  Coefficient  Atom+Function  
  ----- ------------  ---------------      ----- ------------  ---------------
    37      4.534016  1 C  fxxy              44     -2.244617  1 C  fyzz       
    40     -1.587182  1 C  fxyz              79      1.335865  3 H  dxy        
    82     -0.950875  3 H  dyz              101      0.888841  4 H  dyz        
   120      0.888811  5 H  dyz               73     -0.850691  3 H  py         
    63     -0.826842  2 H  dyz               98     -0.786222  4 H  dxy        
 
 Vector   89  Occ=0.000000D+00  E= 4.950599D+00
              MO Center=  3.7D-02, -1.7D-06,  2.6D-02, r^2= 1.3D+00
   Bfn.  Coefficient  Atom+Function         Bfn.  Coefficient  Atom+Function  
  ----- ------------  ---------------      ----- ------------  ---------------
    41      4.366705  1 C  fxzz              61      1.608414  2 H  dxz        
    38     -1.543851  1 C  fxxz              43      1.543864  1 C  fyyz       
    80     -1.395742  3 H  dxz               36     -1.091683  1 C  fxxx       
    39     -1.091683  1 C  fxyy              53     -0.867965  2 H  px         
    74      0.818358  3 H  pz               101      0.744411  4 H  dyz        
 
 Vector   90  Occ=0.000000D+00  E= 5.030398D+00
              MO Center=  7.7D-06,  3.2D-10, -2.9D-05, r^2= 1.5D+00
   Bfn.  Coefficient  Atom+Function         Bfn.  Coefficient  Atom+Function  
  ----- ------------  ---------------      ----- ------------  ---------------
    28      2.689525  1 C  dyz               25     -1.901943  1 C  dxy        
    34      1.879068  1 C  dyz               79     -1.418944  3 H  dxy        
    63      1.380520  2 H  dyz               31     -1.328815  1 C  dxy        
   101      0.754502  4 H  dyz              120      0.754502  5 H  dyz        
    57     -0.664744  2 H  py                76      0.664738  3 H  py         
 
 Vector   91  Occ=0.000000D+00  E= 5.030404D+00
              MO Center=  1.5D-05, -4.6D-10,  2.3D-05, r^2= 1.5D+00
   Bfn.  Coefficient  Atom+Function         Bfn.  Coefficient  Atom+Function  
  ----- ------------  ---------------      ----- ------------  ---------------
    26      2.689626  1 C  dxz               32      1.879166  1 C  dxz        
    61      1.380648  2 H  dxz               80      0.963164  3 H  dxz        
    24      0.950942  1 C  dxx               27     -0.950888  1 C  dyy        
   100     -0.709430  4 H  dyy              119     -0.709430  5 H  dyy        
    30      0.664397  1 C  dxx               33     -0.664349  1 C  dyy        
 
 Vector   92  Occ=0.000000D+00  E= 5.126082D+00
              MO Center=  8.4D-06,  6.6D-09, -2.6D-05, r^2= 1.3D+00
   Bfn.  Coefficient  Atom+Function         Bfn.  Coefficient  Atom+Function  
  ----- ------------  ---------------      ----- ------------  ---------------
    10      4.661747  1 C  s                  6     -2.414130  1 C  s          
    39     -2.156963  1 C  fxyy              47     -2.114243  2 H  s          
    66     -2.114605  3 H  s                 85     -2.114549  4 H  s          
   104     -2.114549  5 H  s                 24      1.609705  1 C  dxx        
    27      1.609697  1 C  dyy               29      1.609583  1 C  dzz        
 
 Vector   93  Occ=0.000000D+00  E= 5.146038D+00
              MO Center=  1.7D-01,  1.2D-06,  3.6D-02, r^2= 1.5D+00
   Bfn.  Coefficient  Atom+Function         Bfn.  Coefficient  Atom+Function  
  ----- ------------  ---------------      ----- ------------  ---------------
    66      3.821562  3 H  s                 47     -2.802195  2 H  s          
    43     -2.264752  1 C  fyyz              11     -1.638244  1 C  px         
    13      1.498756  1 C  pz                67      1.453422  3 H  s          
    39      1.296297  1 C  fxyy              48     -1.065686  2 H  s          
    24     -1.025540  1 C  dxx               41      1.019866  1 C  fxzz       
 
 Vector   94  Occ=0.000000D+00  E= 5.146041D+00
              MO Center= -1.4D-01,  3.9D-06, -9.7D-02, r^2= 1.5D+00
   Bfn.  Coefficient  Atom+Function         Bfn.  Coefficient  Atom+Function  
  ----- ------------  ---------------      ----- ------------  ---------------
    40      3.609799  1 C  fxyz              85     -3.389542  4 H  s          
   104      3.389486  5 H  s                 12      2.220438  1 C  py         
    25     -1.688080  1 C  dxy               44     -1.382201  1 C  fyzz       
    86     -1.289100  4 H  s                105      1.289078  5 H  s          
    79     -1.211144  3 H  dxy               28     -1.193881  1 C  dyz        
 
 Vector   95  Occ=0.000000D+00  E= 5.146049D+00
              MO Center= -3.4D-02, -5.1D-06,  6.2D-02, r^2= 1.5D+00
   Bfn.  Coefficient  Atom+Function         Bfn.  Coefficient  Atom+Function  
  ----- ------------  ---------------      ----- ------------  ---------------
    47      3.062964  2 H  s                 85     -2.341731  4 H  s          
   104     -2.341837  5 H  s                 38      2.238189  1 C  fxxz       
    13     -1.638284  1 C  pz                66      1.620806  3 H  s          
    11     -1.498709  1 C  px                39     -1.260139  1 C  fxyy       
    48      1.164861  2 H  s                 27      1.010129  1 C  dyy        
 
 Vector   96  Occ=0.000000D+00  E= 7.253659D+00
              MO Center=  1.4D-01,  8.7D-06, -1.2D-01, r^2= 1.1D+00
   Bfn.  Coefficient  Atom+Function         Bfn.  Coefficient  Atom+Function  
  ----- ------------  ---------------      ----- ------------  ---------------
     7      6.737568  1 C  px                11     -3.474945  1 C  px         
    26     -2.887239  1 C  dxz               72      2.694829  3 H  px         
    78     -2.403948  3 H  dxx               27     -2.208597  1 C  dyy        
    66      2.025001  3 H  s                 38     -1.996008  1 C  fxxz       
    41     -1.898447  1 C  fxzz              24      1.874542  1 C  dxx        
 
 Vector   97  Occ=0.000000D+00  E= 7.253664D+00
              MO Center= -1.7D-01, -5.4D-06, -1.2D-01, r^2= 1.1D+00
[...]
    24      0.716806  1 C  dxx               27     -0.717126  1 C  dyy        
    18     -0.579098  1 C  dxx               21      0.579043  1 C  dyy        
    61      0.461188  2 H  dxz               32     -0.384382  1 C  dxz        
    80      0.309124  3 H  dxz               53     -0.260255  2 H  px         
 
 Vector  101  Occ=0.000000D+00  E= 7.807318D+00
              MO Center=  1.9D-06, -1.0D-10,  5.8D-06, r^2= 1.5D+00
   Bfn.  Coefficient  Atom+Function         Bfn.  Coefficient  Atom+Function  
  ----- ------------  ---------------      ----- ------------  ---------------
    10     13.098243  1 C  s                 24     -5.617338  1 C  dxx        
    27     -5.617251  1 C  dyy               29     -5.617287  1 C  dzz        
    39      5.304414  1 C  fxyy              38      3.750828  1 C  fxxz       
    43      3.750775  1 C  fyyz              55     -3.206028  2 H  pz         
    72     -3.022661  3 H  px                92     -2.617698  4 H  py         
 
 Vector  102  Occ=0.000000D+00  E= 8.589794D+00
              MO Center=  5.2D-02,  6.2D-05, -1.2D-01, r^2= 1.4D+00
   Bfn.  Coefficient  Atom+Function         Bfn.  Coefficient  Atom+Function  
  ----- ------------  ---------------      ----- ------------  ---------------
     9      7.744369  1 C  pz                 7      4.675229  1 C  px         
    38     -4.228931  1 C  fxxz              43     -2.769837  1 C  fyyz       
    45     -2.360029  1 C  fzzz              29      2.333465  1 C  dzz        
    27     -2.162772  1 C  dyy               41     -2.112552  1 C  fxzz       
    36     -1.999492  1 C  fxxx              55      1.817030  2 H  pz         
 
 Vector  103  Occ=0.000000D+00  E= 8.589795D+00
              MO Center=  1.5D-01, -5.9D-05,  1.0D-01, r^2= 1.4D+00
   Bfn.  Coefficient  Atom+Function         Bfn.  Coefficient  Atom+Function  
  ----- ------------  ---------------      ----- ------------  ---------------
     8      9.046190  1 C  py                44     -4.087642  1 C  fyzz       
    25     -3.854676  1 C  dxy               37     -3.089475  1 C  fxxy       
    42     -3.089490  1 C  fyyy              40      2.823176  1 C  fxyz       
    28     -2.725657  1 C  dyz                4     -1.705429  1 C  py         
    92      1.643252  4 H  py               111      1.643027  5 H  py         
 
 Vector  104  Occ=0.000000D+00  E= 8.589800D+00
              MO Center= -2.0D-01, -2.5D-06,  2.0D-02, r^2= 1.4D+00
   Bfn.  Coefficient  Atom+Function         Bfn.  Coefficient  Atom+Function  
  ----- ------------  ---------------      ----- ------------  ---------------
     7      7.744347  1 C  px                 9     -4.675276  1 C  pz         
    41     -3.499375  1 C  fxzz              39     -3.374413  1 C  fxyy       
    43      3.321012  1 C  fyyz              36     -2.401700  1 C  fxxx       
    24      2.354350  1 C  dxx               26     -2.333423  1 C  dxz        
    72      1.913780  3 H  px                 3     -1.459998  1 C  px         
 
 Vector  105  Occ=0.000000D+00  E= 8.719814D+00
              MO Center=  8.4D-02,  5.5D-04, -1.8D-01, r^2= 1.4D+00
   Bfn.  Coefficient  Atom+Function         Bfn.  Coefficient  Atom+Function  
  ----- ------------  ---------------      ----- ------------  ---------------
    70      0.753949  3 H  py                73     -0.586951  3 H  py         
    88     -0.519276  4 H  px               107      0.518799  5 H  px         
    51     -0.463837  2 H  py                91      0.404248  4 H  px         
   110     -0.403877  5 H  px                90      0.379061  4 H  pz         
   109     -0.378386  5 H  pz                37      0.365160  1 C  fxxy       
 
 Vector  106  Occ=0.000000D+00  E= 8.719815D+00
              MO Center=  2.6D-01, -5.3D-04,  1.8D-01, r^2= 1.4D+00
   Bfn.  Coefficient  Atom+Function         Bfn.  Coefficient  Atom+Function  
  ----- ------------  ---------------      ----- ------------  ---------------
    50      0.786921  2 H  px                71     -0.741917  3 H  pz         
    53     -0.612625  2 H  px                74      0.577590  3 H  pz         
    90      0.370646  4 H  pz               109      0.371275  5 H  pz         
    41      0.363651  1 C  fxzz              93     -0.288553  4 H  pz         
   112     -0.289042  5 H  pz                56      0.275801  2 H  px         
 
 Vector  107  Occ=0.000000D+00  E= 8.719818D+00
              MO Center= -3.4D-01, -1.2D-05, -7.7D-03, r^2= 1.3D+00
   Bfn.  Coefficient  Atom+Function         Bfn.  Coefficient  Atom+Function  
  ----- ------------  ---------------      ----- ------------  ---------------
    51      0.635688  2 H  py                90     -0.519017  4 H  pz         
   109      0.519060  5 H  pz                54     -0.494885  2 H  py         
    89     -0.430555  4 H  py               108     -0.430555  5 H  py         
    93      0.404050  4 H  pz               112     -0.404084  5 H  pz         
    88     -0.378738  4 H  px               107      0.378708  5 H  px         
 
 Vector  108  Occ=0.000000D+00  E= 9.059636D+00
              MO Center=  7.4D-07, -1.7D-09, -3.9D-06, r^2= 1.4D+00
   Bfn.  Coefficient  Atom+Function         Bfn.  Coefficient  Atom+Function  
  ----- ------------  ---------------      ----- ------------  ---------------
    28      1.790060  1 C  dyz               25     -1.265724  1 C  dxy        
    54     -0.789360  2 H  py                73      0.789357  3 H  py         
    51      0.649059  2 H  py                70     -0.649065  3 H  py         
    93     -0.644504  4 H  pz               112      0.644507  5 H  pz         
    79     -0.556308  3 H  dxy               22     -0.542112  1 C  dyz        
 
 Vector  109  Occ=0.000000D+00  E= 9.059639D+00
              MO Center=  3.1D-06, -3.8D-09,  7.8D-07, r^2= 1.4D+00
   Bfn.  Coefficient  Atom+Function         Bfn.  Coefficient  Atom+Function  
  ----- ------------  ---------------      ----- ------------  ---------------
    26      1.790056  1 C  dxz               53     -0.789365  2 H  px         
    74     -0.744227  3 H  pz                50      0.649063  2 H  px         
    24      0.632926  1 C  dxx               27     -0.632861  1 C  dyy        
    71      0.611944  3 H  pz                20     -0.542117  1 C  dxz        
    61      0.537720  2 H  dxz               91      0.526233  4 H  px         
 
 Vector  110  Occ=0.000000D+00  E= 9.428775D+00
              MO Center=  1.6D-02,  1.2D-07, -1.2D-02, r^2= 1.1D+00
   Bfn.  Coefficient  Atom+Function         Bfn.  Coefficient  Atom+Function  
  ----- ------------  ---------------      ----- ------------  ---------------
     7     11.269273  1 C  px                41     -5.217510  1 C  fxzz       
    36     -4.322145  1 C  fxxx              39     -4.199217  1 C  fxyy       
     3     -2.470727  1 C  px                26     -2.225277  1 C  dxz        
    11     -1.976678  1 C  px                38     -1.675832  1 C  fxxz       
    27     -1.651030  1 C  dyy               24      1.495944  1 C  dxx        
 
 Vector  111  Occ=0.000000D+00  E= 9.428785D+00
              MO Center= -1.8D-02, -1.2D-06, -1.3D-02, r^2= 1.1D+00
   Bfn.  Coefficient  Atom+Function         Bfn.  Coefficient  Atom+Function  
  ----- ------------  ---------------      ----- ------------  ---------------
     8     11.297108  1 C  py                44     -5.230488  1 C  fyzz       
    37     -4.302178  1 C  fxxy              42     -4.302204  1 C  fyyy       
    25     -3.154437  1 C  dxy               40      2.625583  1 C  fxyz       
     4     -2.476881  1 C  py                28     -2.230497  1 C  dyz        
    12     -1.981493  1 C  py                84     -0.949147  4 H  s          
 
 Vector  112  Occ=0.000000D+00  E= 9.428786D+00
              MO Center=  1.8D-03,  1.1D-06,  2.5D-02, r^2= 1.1D+00
   Bfn.  Coefficient  Atom+Function         Bfn.  Coefficient  Atom+Function  
  ----- ------------  ---------------      ----- ------------  ---------------
     9     11.269409  1 C  pz                43     -5.309509  1 C  fyyz       
    38     -5.125638  1 C  fxxz              45     -3.982920  1 C  fzzz       
     5     -2.470782  1 C  pz                29      2.225294  1 C  dzz        
    13     -1.976647  1 C  pz                39      1.611010  1 C  fxyy       
    55      1.254798  2 H  pz                24     -1.222859  1 C  dxx        
 
 Vector  113  Occ=0.000000D+00  E= 9.487481D+00
              MO Center=  3.3D-05, -4.2D-10,  1.1D-05, r^2= 1.1D+00
   Bfn.  Coefficient  Atom+Function         Bfn.  Coefficient  Atom+Function  
  ----- ------------  ---------------      ----- ------------  ---------------
     6     18.140860  1 C  s                 10      6.476725  1 C  s          
    24     -4.613476  1 C  dxx               27     -4.613855  1 C  dyy        
    29     -4.613667  1 C  dzz                2     -3.708423  1 C  s          
    18     -3.467580  1 C  dxx               21     -3.467489  1 C  dyy        
    23     -3.467553  1 C  dzz               39     -2.025871  1 C  fxyy       
 
 Vector  114  Occ=0.000000D+00  E= 1.024761D+01
              MO Center=  9.5D-02,  9.0D-06, -9.5D-02, r^2= 1.2D+00
   Bfn.  Coefficient  Atom+Function         Bfn.  Coefficient  Atom+Function  
  ----- ------------  ---------------      ----- ------------  ---------------
    39      8.227131  1 C  fxyy              26     -6.932899  1 C  dxz        
    36      6.686395  1 C  fxxx              27     -5.902911  1 C  dyy        
    43      5.227302  1 C  fyyz              72      4.771068  3 H  px         
    41      4.240940  1 C  fxzz              24      3.901586  1 C  dxx        
     7     -3.803415  1 C  px                78     -3.451841  3 H  dxx        
 
 Vector  115  Occ=0.000000D+00  E= 1.024765D+01
              MO Center= -1.7D-01,  8.4D-06, -1.2D-01, r^2= 1.2D+00
   Bfn.  Coefficient  Atom+Function         Bfn.  Coefficient  Atom+Function  
  ----- ------------  ---------------      ----- ------------  ---------------
    25     10.204722  1 C  dxy               40     -8.333053  1 C  fxyz       
    37     -7.360216  1 C  fxxy              42     -7.360127  1 C  fyyy       
    28      7.215754  1 C  dyz               44     -4.413955  1 C  fyzz       
    92     -4.258858  4 H  py               111     -4.258758  5 H  py         
     8      3.958776  1 C  py                84      3.184103  4 H  s          
 
 Vector  116  Occ=0.000000D+00  E= 1.024765D+01
              MO Center=  7.9D-02, -1.7D-05,  2.2D-01, r^2= 1.1D+00
   Bfn.  Coefficient  Atom+Function         Bfn.  Coefficient  Atom+Function  
  ----- ------------  ---------------      ----- ------------  ---------------
    45      8.014915  1 C  fzzz              29      6.932404  1 C  dzz        
    55      5.812876  2 H  pz                38      5.396446  1 C  fxxz       
    24     -4.881406  1 C  dxx               64     -4.198535  2 H  dzz        
     9     -3.803884  1 C  pz                46     -3.746599  2 H  s          
    36     -3.375604  1 C  fxxx              72     -3.135304  3 H  px         
 
 Vector  117  Occ=0.000000D+00  E= 1.044741D+01
              MO Center= -3.2D-01,  6.2D-05, -2.2D-01, r^2= 1.3D+00
   Bfn.  Coefficient  Atom+Function         Bfn.  Coefficient  Atom+Function  
  ----- ------------  ---------------      ----- ------------  ---------------
     8      9.154513  1 C  py                25     -7.622071  1 C  dxy        
    28     -5.389532  1 C  dyz               40      4.411284  1 C  fxyz       
    92      4.243118  4 H  py               111      4.242608  5 H  py         
    91     -2.597959  4 H  px               110      2.597703  5 H  px         
   100     -2.263039  4 H  dyy              119      2.262773  5 H  dyy        
 
 Vector  118  Occ=0.000000D+00  E= 1.044742D+01
              MO Center=  4.3D-01, -1.4D-05, -3.4D-02, r^2= 1.2D+00
   Bfn.  Coefficient  Atom+Function         Bfn.  Coefficient  Atom+Function  
  ----- ------------  ---------------      ----- ------------  ---------------
     7      7.755267  1 C  px                72      5.991914  3 H  px         
     9     -4.864355  1 C  pz                24      4.660395  1 C  dxx        
    26     -4.565469  1 C  dxz               55     -3.450198  2 H  pz         
    78     -3.353119  3 H  dxx               29     -2.864088  1 C  dzz        
    43      2.466125  1 C  fyyz              65     -2.156182  3 H  s          
 
 Vector  119  Occ=0.000000D+00  E= 1.044743D+01
              MO Center= -1.1D-01, -4.8D-05,  2.6D-01, r^2= 1.4D+00
   Bfn.  Coefficient  Atom+Function         Bfn.  Coefficient  Atom+Function  
  ----- ------------  ---------------      ----- ------------  ---------------
     9      7.755066  1 C  pz                55      5.500265  2 H  pz         
     7      4.864705  1 C  px                29      4.565813  1 C  dzz        
    27     -4.307783  1 C  dyy               64     -3.180304  2 H  dzz        
    92     -2.936216  4 H  py               111      2.936789  5 H  py         
    26     -2.863582  1 C  dxz               38     -2.125026  1 C  fxxz       
 
 Vector  120  Occ=0.000000D+00  E= 1.094122D+01
              MO Center= -9.8D-06, -3.0D-09,  2.1D-05, r^2= 1.4D+00
   Bfn.  Coefficient  Atom+Function         Bfn.  Coefficient  Atom+Function  
  ----- ------------  ---------------      ----- ------------  ---------------
     6      7.806327  1 C  s                 39     -4.334246  1 C  fxyy       
    55      4.243061  2 H  pz                72      4.000128  3 H  px         
    10     -3.675705  1 C  s                 92      3.464188  4 H  py         
   111     -3.464188  5 H  py                24      3.413805  1 C  dxx        
    27      3.413664  1 C  dyy               29      3.414043  1 C  dzz        
 
 Vector  121  Occ=0.000000D+00  E= 2.915572D+01
              MO Center=  9.7D-07, -1.6D-13,  4.2D-09, r^2= 9.0D-02
   Bfn.  Coefficient  Atom+Function         Bfn.  Coefficient  Atom+Function  
  ----- ------------  ---------------      ----- ------------  ---------------
     6      4.274754  1 C  s                  1     -2.005618  1 C  s          
     2      1.557222  1 C  s                 18     -1.138039  1 C  dxx        
    21     -1.138038  1 C  dyy               23     -1.138038  1 C  dzz        
    24     -1.102115  1 C  dxx               27     -1.102121  1 C  dyy        
    29     -1.102125  1 C  dzz               10      0.941264  1 C  s          
 

 center of mass
 --------------
 x =   0.00000070 y =   0.00000000 z =   0.00000000

 moments of inertia (a.u.)
 ------------------
          11.349105394894           0.000000000000          -0.000013045684
           0.000000000000          11.349174827291           0.000000000000
          -0.000013045684           0.000000000000          11.349161508803
 
     Multipole analysis of the density
     ---------------------------------
 
     L   x y z        total         alpha         beta         nuclear
     -   - - -        -----         -----         ----         -------
     0   0 0 0     -0.000000     -5.000000     -5.000000     10.000000
 
     1   1 0 0     -0.000001     -0.000000     -0.000000      0.000000
     1   0 1 0      0.000000      0.000000      0.000000      0.000000
     1   0 0 1      0.000001      0.000000      0.000000      0.000000
 
     2   2 0 0     -6.260511     -5.945534     -5.945534      5.630556
     2   1 1 0     -0.000000     -0.000000     -0.000000      0.000000
     2   1 0 1      0.000004     -0.000005     -0.000005      0.000013
     2   0 2 0     -6.260532     -5.945510     -5.945510      5.630487
     2   0 1 1     -0.000000     -0.000000     -0.000000      0.000000
     2   0 0 2     -6.260522     -5.945511     -5.945511      5.630501
 

------------------------------------------------------------
EAF file 0: "./CH4.aoints.00" size=1048576 bytes
------------------------------------------------------------
               write      read    awrite     aread      wait
               -----      ----    ------     -----      ----
     calls:        2         1         0         1         1
   data(b): 1.05e+06  5.24e+05  0.00e+00  5.24e+05
   time(s): 0.00e+00  0.00e+00  0.00e+00  0.00e+00  0.00e+00
rate(mb/s): 0.00e+00  0.00e+00
------------------------------------------------------------


 Parallel integral file used     551 records with       0 large values


 Task  times  cpu:        3.6s     wall:        4.6s
 
 
                                NWChem Input Module
                                -------------------
 
 
 Summary of allocated global arrays
-----------------------------------
  No active global arrays



                         GA Statistics for process    0
                         ------------------------------

       create   destroy   get      put      acc     scatter   gather  read&inc
calls:  110      110     1725      526      671        0        0      108     
number of processes/call 2.05e+00 1.83e+00 1.99e+00 0.00e+00 0.00e+00
bytes total:             2.15e+07 2.48e+06 1.02e+07 0.00e+00 0.00e+00 8.64e+02
bytes remote:            1.36e+07 1.34e+06 6.45e+06 0.00e+00 0.00e+00 0.00e+00
Max memory consumed for GA by this process: 768856 bytes
 
MA_summarize_allocated_blocks: starting scan ...
MA_summarize_allocated_blocks: scan completed: 0 heap blocks, 0 stack blocks
MA usage statistics:

	allocation statistics:
					      heap	     stack
					      ----	     -----
	current number of blocks	         0	         0
	maximum number of blocks	        21	        53
	current total bytes		         0	         0
	maximum total bytes		  28732712	  24004360
	maximum total K-bytes		     28733	     24005
	maximum total M-bytes		        29	        25
 
 
                                     CITATION
                                     --------
                Please cite the following reference when publishing
                           results obtained with NWChem:
 
                 M. Valiev, E.J. Bylaska, N. Govind, K. Kowalski,
              T.P. Straatsma, H.J.J. van Dam, D. Wang, J. Nieplocha,
                        E. Apra, T.L. Windus, W.A. de Jong
                 "NWChem: a comprehensive and scalable open-source
                  solution for large scale molecular simulations"
                      Comput. Phys. Commun. 181, 1477 (2010)
                           doi:10.1016/j.cpc.2010.04.018
 
                                      AUTHORS
                                      -------
          E. Apra, E. J. Bylaska, W. A. de Jong, N. Govind, K. Kowalski,
       T. P. Straatsma, M. Valiev, H. J. J. van Dam, D. Wang, T. L. Windus,
        J. Hammond, J. Autschbach, K. Bhaskaran-Nair, J. Brabec, K. Lopata,
    S. A. Fischer, S. Krishnamoorthy, M. Jacquelin, W. Ma, M. Klemm, O. Villa,
      Y. Chen, V. Anisimov, F. Aquino, S. Hirata, M. T. Hackler, V. Konjkov,
            D. Mejia-Rodriguez, T. Risthaus, M. Malagoli, A. Marenich,
   A. Otero-de-la-Roza, J. Mullin, P. Nichols, R. Peverati, J. Pittner, Y. Zhao,
        P.-D. Fan, A. Fonari, M. J. Williamson, R. J. Harrison, J. R. Rehr,
      M. Dupuis, D. Silverstein, D. M. A. Smith, J. Nieplocha, V. Tipparaju,
    M. Krishnan, B. E. Van Kuiken, A. Vazquez-Mayagoitia, L. Jensen, M. Swart,
      Q. Wu, T. Van Voorhis, A. A. Auer, M. Nooijen, L. D. Crosby, E. Brown,
      G. Cisneros, G. I. Fann, H. Fruchtl, J. Garza, K. Hirao, R. A. Kendall,
      J. A. Nichols, K. Tsemekhman, K. Wolinski, J. Anchell, D. E. Bernholdt,
      P. Borowski, T. Clark, D. Clerc, H. Dachsel, M. J. O. Deegan, K. Dyall,
    D. Elwood, E. Glendening, M. Gutowski, A. C. Hess, J. Jaffe, B. G. Johnson,
     J. Ju, R. Kobayashi, R. Kutteh, Z. Lin, R. Littlefield, X. Long, B. Meng,
      T. Nakajima, S. Niu, L. Pollack, M. Rosing, K. Glaesemann, G. Sandrone,
      M. Stave, H. Taylor, G. Thomas, J. H. van Lenthe, A. T. Wong, Z. Zhang.

 Total times  cpu:        3.6s     wall:        4.9s
