 argument  1 = /storage/home/rabeet/work/nwc/bh6/nwtpss/H2.nw
  NWChem w/ OpenMP: maximum threads =  1
                                         
                                         
 
 
              Northwest Computational Chemistry Package (NWChem) 6.8
              ------------------------------------------------------
 
 
                    Environmental Molecular Sciences Laboratory
                       Pacific Northwest National Laboratory
                                Richland, WA 99352
 
                              Copyright (c) 1994-2018
                       Pacific Northwest National Laboratory
                            Battelle Memorial Institute
 
             NWChem is an open-source computational chemistry package
                        distributed under the terms of the
                      Educational Community License (ECL) 2.0
             A copy of the license is included with this distribution
                              in the LICENSE.TXT file
 
                                  ACKNOWLEDGMENT
                                  --------------

            This software and its documentation were developed at the
            EMSL at Pacific Northwest National Laboratory, a multiprogram
            national laboratory, operated for the U.S. Department of Energy
            by Battelle under Contract Number DE-AC05-76RL01830. Support
            for this work was provided by the Department of Energy Office
            of Biological and Environmental Research, Office of Basic
            Energy Sciences, and the Office of Advanced Scientific Computing.


           Job information
           ---------------

    hostname        = r8n4.niserhpc.org
    program         = /home/rabeet/nwchem-6.8/bin/LINUX64/nwchem
    date            = Sun Oct 27 08:43:58 2019

    compiled        = Fri_Jun_28_18:24:12_2019
    source          = /home/rabeet/nwchem-6.8
    nwchem branch   = Development
    nwchem revision = N/A
    ga revision     = 5.6.5
    use scalapack   = T
    input           = /storage/home/rabeet/work/nwc/bh6/nwtpss/H2.nw
    prefix          = H2.
    data base       = ./H2.db
    status          = startup
    nproc           =       16
    time left       =     -1s



           Memory information
           ------------------

    heap     =   13107198 doubles =    100.0 Mbytes
    stack    =   13107195 doubles =    100.0 Mbytes
    global   =   26214400 doubles =    200.0 Mbytes (distinct from heap & stack)
    total    =   52428793 doubles =    400.0 Mbytes
    verify   = yes
    hardfail = no 


           Directory information
           ---------------------
 
  0 permanent = .
  0 scratch   = .
 
 
 
 
                                NWChem Input Module
                                -------------------
 
 

 Scaling coordinates for geometry "geometry" by  1.889725989
 (inverse scale =  0.529177249)


          ------
          auto-z
          ------
  no constraints, skipping   0.000000000000000E+000
  no constraints, skipping   0.000000000000000E+000
 
 
                             Geometry "geometry" -> ""
                             -------------------------
 
 Output coordinates in angstroms (scale by  1.889725989 to convert to a.u.)
 
  No.       Tag          Charge          X              Y              Z
 ---- ---------------- ---------- -------------- -------------- --------------
    1 H                    1.0000     0.00000000     0.00000000    -0.37094000
    2 H                    1.0000     0.00000000     0.00000000     0.37094000
 
      Atomic Mass 
      ----------- 
 
      H                  1.007825
 

 Effective nuclear repulsion energy (a.u.)       0.7132922427

            Nuclear Dipole moment (a.u.) 
            ----------------------------
        X                 Y               Z
 ---------------- ---------------- ----------------
     0.0000000000     0.0000000000     0.0000000000
 


                                Z-matrix (autoz)
                                -------- 

 Units are Angstrom for bonds and degrees for angles
 
      Type          Name      I     J     K     L     M      Value
      ----------- --------  ----- ----- ----- ----- ----- ----------
    1 Stretch                  1     2                       0.74188
 
 
            XYZ format geometry
            -------------------
     2
 geometry
 H                     0.00000000     0.00000000    -0.37094000
 H                     0.00000000     0.00000000     0.37094000
 


 Summary of "ao basis" -> "" (cartesian)
 ------------------------------------------------------------------------------
       Tag                 Description            Shells   Functions and Types
 ---------------- ------------------------------  ------  ---------------------
 *                     6-311++G(3df,3pd)              on all atoms 


 
                                 NWChem DFT Module
                                 -----------------
 
 
                      Basis "ao basis" -> "ao basis" (cartesian)
                      -----
  H (Hydrogen)
  ------------
            Exponent  Coefficients 
       -------------- ---------------------------------------------------------
  1 S  3.38650000E+01  0.025494
  1 S  5.09479000E+00  0.190373
  1 S  1.15879000E+00  0.852161
 
  2 S  3.25840000E-01  1.000000
 
  3 S  1.02741000E-01  1.000000
 
  4 S  3.60000000E-02  1.000000
 
  5 P  3.00000000E+00  1.000000
 
  6 P  7.50000000E-01  1.000000
 
  7 P  1.87500000E-01  1.000000
 
  8 D  1.00000000E+00  1.000000
 


 Summary of "ao basis" -> "ao basis" (cartesian)
 ------------------------------------------------------------------------------
       Tag                 Description            Shells   Functions and Types
 ---------------- ------------------------------  ------  ---------------------
 H                     6-311++G(3df,3pd)             8       19   4s3p1d




 Summary of "ao basis" -> "ao basis" (cartesian)
 ------------------------------------------------------------------------------
       Tag                 Description            Shells   Functions and Types
 ---------------- ------------------------------  ------  ---------------------
 H                     6-311++G(3df,3pd)             8       19   4s3p1d


  Caching 1-el integrals 
 
            General Information
            -------------------
          SCF calculation type: DFT
          Wavefunction type:  closed shell.
          No. of atoms     :     2
          No. of electrons :     2
           Alpha electrons :     1
            Beta electrons :     1
          Charge           :     0
          Spin multiplicity:     1
          Use of symmetry is: off; symmetry adaption is: off
          Maximum number of iterations: ***
          AO basis - number of functions:    38
                     number of shells:    16
          Convergence on energy requested:  1.00D-06
          Convergence on density requested:  1.00D-05
          Convergence on gradient requested:  5.00D-04
 
              XC Information
              --------------
                  TPSS metaGGA Exchange Functional  1.000          
             TPSS03 metaGGA Correlation Functional  1.000          
 
             Grid Information
             ----------------
          Grid used for XC integration:  medium    
          Radial quadrature: Mura-Knowles        
          Angular quadrature: Lebedev. 
          Tag              B.-S. Rad. Rad. Pts. Rad. Cut. Ang. Pts.
          ---              ---------- --------- --------- ---------
          H                   0.35       45          10.0       434
          Grid pruning is: on 
          Number of quadrature shells:    90
          Spatial weights used:  Erf1
 
          Convergence Information
          -----------------------
          Convergence aids based upon iterative change in 
          total energy or number of iterations. 
          Levelshifting, if invoked, occurs when the 
          HOMO/LUMO gap drops below (HL_TOL):  1.00D-02
          DIIS, if invoked, will attempt to extrapolate 
          using up to (NFOCK): 10 stored Fock matrices.

                    Damping( 0%)  Levelshifting(0.5)       DIIS
                  --------------- ------------------- ---------------
          dE  on:    start            ASAP                start   
          dE off:    2 iters        *** iters           *** iters 

 
      Screening Tolerance Information
      -------------------------------
          Density screening/tol_rho:  1.00D-10
          AO Gaussian exp screening on grid/accAOfunc:  14
          CD Gaussian exp screening on grid/accCDfunc:  20
          XC Gaussian exp screening on grid/accXCfunc:  20
          Schwarz screening/accCoul:  1.00D-08

 
      Superposition of Atomic Density Guess
      -------------------------------------
 
 Sum of atomic energies:          -0.99963633
 
      Non-variational initial energy
      ------------------------------

 Total energy =      -0.851024
 1-e energy   =      -2.218330
 2-e energy   =       0.654014
 HOMO         =      -0.585300
 LUMO         =       0.058962
 
   Time after variat. SCF:      0.4
   Time prior to 1st pass:      0.4

 #quartets = 9.316D+03 #integrals = 8.098D+04 #direct =  0.0% #cached =100.0%


 Integral file          = ./H2.aoints.00
 Record size in doubles =    65536    No. of integs per rec  =    43688
 Max. records in memory =        2    Max. records in file   =  8903714
 No. of bits per label  =        8    No. of bits per value  =       64


File balance: exchanges=     0  moved=     0  time=   0.0


 Grid_pts file          = ./H2.gridpts.00
 Record size in doubles =  12289        No. of grid_pts per rec  =   3070
 Max. records in memory =      2        Max. recs in file   =  11339128


           Memory utilization after 1st SCF pass: 
           Heap Space remaining (MW):       12.95            12950190
          Stack Space remaining (MW):       13.11            13106860

   convergence    iter        energy       DeltaE   RMS-Dens  Diis-err    time
 ---------------- ----- ----------------- --------- --------- ---------  ------
 d= 0,ls=0.0,diis     1     -1.1775775377 -1.89D+00  1.78D-03  1.20D-02     2.6
 d= 0,ls=0.0,diis     2     -1.1797496566 -2.17D-03  5.00D-04  6.82D-04     2.6
 d= 0,ls=0.0,diis     3     -1.1798822773 -1.33D-04  3.63D-05  7.78D-06     2.7
 d= 0,ls=0.0,diis     4     -1.1798838661 -1.59D-06  5.37D-07  2.35D-09     2.7
 d= 0,ls=0.0,diis     5     -1.1798838664 -3.18D-10  1.51D-08  4.18D-12     3.2


         Total DFT energy =       -1.179883866441
      One electron energy =       -2.508015691930
           Coulomb energy =        1.324450752136
          Exchange energy =       -0.667526756660
       Correlation energy =       -0.042084412667
 Nuclear repulsion energy =        0.713292242680

 Numeric. integr. density =        2.000000056917

     Total iterative time =      2.8s


 
                       DFT Final Molecular Orbital Analysis
                       ------------------------------------
 
 Vector    1  Occ=2.000000D+00  E=-3.939193D-01
              MO Center= -2.2D-15, -2.2D-15,  6.6D-16, r^2= 7.2D-01
   Bfn.  Coefficient  Atom+Function         Bfn.  Coefficient  Atom+Function  
  ----- ------------  ---------------      ----- ------------  ---------------
     2      0.273167  1 H  s                 21      0.273167  2 H  s          
     1      0.196280  1 H  s                 20      0.196280  2 H  s          
     3      0.131807  1 H  s                 22      0.131807  2 H  s          
 
 Vector    2  Occ=0.000000D+00  E= 1.961735D-02
              MO Center=  1.7D-15,  1.1D-15,  1.4D-12, r^2= 7.6D+00
   Bfn.  Coefficient  Atom+Function         Bfn.  Coefficient  Atom+Function  
  ----- ------------  ---------------      ----- ------------  ---------------
     4      3.194746  1 H  s                 23     -3.194746  2 H  s          
    13     -0.164934  1 H  pz                32     -0.164934  2 H  pz         
     3     -0.125847  1 H  s                 22      0.125847  2 H  s          
     1      0.050868  1 H  s                 20     -0.050868  2 H  s          
    10     -0.028421  1 H  pz                29     -0.028421  2 H  pz         
 
 Vector    3  Occ=0.000000D+00  E= 3.086867D-02
              MO Center=  2.9D-15,  2.9D-15, -1.4D-12, r^2= 9.0D+00
   Bfn.  Coefficient  Atom+Function         Bfn.  Coefficient  Atom+Function  
  ----- ------------  ---------------      ----- ------------  ---------------
     4      0.779857  1 H  s                 23      0.779857  2 H  s          
     3     -0.424948  1 H  s                 22     -0.424948  2 H  s          
     1     -0.076488  1 H  s                 20     -0.076488  2 H  s          
 
 Vector    4  Occ=0.000000D+00  E= 1.362574D-01
              MO Center=  2.8D-15,  2.6D-15,  1.4D-13, r^2= 9.7D+00
   Bfn.  Coefficient  Atom+Function         Bfn.  Coefficient  Atom+Function  
  ----- ------------  ---------------      ----- ------------  ---------------
     4     -5.233091  1 H  s                 23      5.233091  2 H  s          
     3      4.805716  1 H  s                 22     -4.805716  2 H  s          
     2      0.739697  1 H  s                 21     -0.739697  2 H  s          
    13      0.629323  1 H  pz                32      0.629323  2 H  pz         
     1      0.057154  1 H  s                 20     -0.057154  2 H  s          
 
 Vector    5  Occ=0.000000D+00  E= 2.216669D-01
              MO Center= -1.6D-15,  2.3D-15,  4.8D-14, r^2= 2.0D+00
   Bfn.  Coefficient  Atom+Function         Bfn.  Coefficient  Atom+Function  
  ----- ------------  ---------------      ----- ------------  ---------------
    11      0.377947  1 H  px                12     -0.378641  1 H  py         
    30      0.377947  2 H  px                31     -0.378641  2 H  py         
 
 Vector    6  Occ=0.000000D+00  E= 2.216669D-01
              MO Center=  2.1D-14,  2.1D-14,  4.6D-14, r^2= 2.0D+00
   Bfn.  Coefficient  Atom+Function         Bfn.  Coefficient  Atom+Function  
  ----- ------------  ---------------      ----- ------------  ---------------
    11      0.378641  1 H  px                12      0.377947  1 H  py         
    30      0.378641  2 H  px                31      0.377947  2 H  py         
 
 Vector    7  Occ=0.000000D+00  E= 3.183522D-01
              MO Center= -1.9D-14, -2.2D-14, -1.5D-13, r^2= 6.0D+00
   Bfn.  Coefficient  Atom+Function         Bfn.  Coefficient  Atom+Function  
  ----- ------------  ---------------      ----- ------------  ---------------
     3      1.599950  1 H  s                 22      1.599950  2 H  s          
     2     -1.049899  1 H  s                 21     -1.049899  2 H  s          
     4     -0.781564  1 H  s                 23     -0.781564  2 H  s          
    13     -0.232883  1 H  pz                32      0.232883  2 H  pz         
    14      0.090099  1 H  dxx               17      0.090099  1 H  dyy        
 
 Vector    8  Occ=0.000000D+00  E= 4.318332D-01
              MO Center= -4.2D-15, -2.5D-14,  4.4D-14, r^2= 6.4D+00
   Bfn.  Coefficient  Atom+Function         Bfn.  Coefficient  Atom+Function  
  ----- ------------  ---------------      ----- ------------  ---------------
     3     10.112933  1 H  s                 22    -10.112933  2 H  s          
     4     -4.166790  1 H  s                 23      4.166790  2 H  s          
    13      2.536097  1 H  pz                32      2.536097  2 H  pz         
     2      1.510034  1 H  s                 21     -1.510034  2 H  s          
    10      0.188242  1 H  pz                29      0.188242  2 H  pz         
 
 Vector    9  Occ=0.000000D+00  E= 4.627667D-01
              MO Center=  1.4D-14,  1.9D-14, -4.6D-14, r^2= 2.8D+00
   Bfn.  Coefficient  Atom+Function         Bfn.  Coefficient  Atom+Function  
  ----- ------------  ---------------      ----- ------------  ---------------
    12      1.426371  1 H  py                31     -1.426371  2 H  py         
    11      1.065919  1 H  px                30     -1.065919  2 H  px         
     9     -0.059692  1 H  py                28      0.059692  2 H  py         
     8     -0.044608  1 H  px                27      0.044608  2 H  px         
 
 Vector   10  Occ=0.000000D+00  E= 4.627667D-01
              MO Center= -1.0D-14,  8.0D-15, -4.7D-14, r^2= 2.8D+00
   Bfn.  Coefficient  Atom+Function         Bfn.  Coefficient  Atom+Function  
  ----- ------------  ---------------      ----- ------------  ---------------
    11      1.426371  1 H  px                30     -1.426371  2 H  px         
    12     -1.065919  1 H  py                31      1.065919  2 H  py         
     8     -0.059692  1 H  px                27      0.059692  2 H  px         
     9      0.044608  1 H  py                28     -0.044608  2 H  py         
 
 Vector   11  Occ=0.000000D+00  E= 4.726983D-01
              MO Center= -3.2D-15, -3.5D-15, -3.7D-14, r^2= 2.7D+00
   Bfn.  Coefficient  Atom+Function         Bfn.  Coefficient  Atom+Function  
  ----- ------------  ---------------      ----- ------------  ---------------
    13      1.438583  1 H  pz                32     -1.438583  2 H  pz         
     2     -1.131095  1 H  s                 21     -1.131095  2 H  s          
     3      0.620402  1 H  s                 22      0.620402  2 H  s          
     4     -0.116132  1 H  s                 23     -0.116132  2 H  s          
    19      0.092480  1 H  dzz               38      0.092480  2 H  dzz        
 
 Vector   12  Occ=0.000000D+00  E= 9.462457D-01
              MO Center=  6.5D-16,  1.1D-15, -2.3D-15, r^2= 3.9D+00
   Bfn.  Coefficient  Atom+Function         Bfn.  Coefficient  Atom+Function  
  ----- ------------  ---------------      ----- ------------  ---------------
     3     10.577148  1 H  s                 22    -10.577148  2 H  s          
     2      7.478195  1 H  s                 21     -7.478195  2 H  s          
    13      4.720025  1 H  pz                32      4.720025  2 H  pz         
     4     -2.463908  1 H  s                 23      2.463908  2 H  s          
    10      0.752868  1 H  pz                29      0.752868  2 H  pz         
 
 Vector   13  Occ=0.000000D+00  E= 1.485159D+00
              MO Center=  6.8D-14,  7.4D-14, -1.8D-15, r^2= 2.4D+00
   Bfn.  Coefficient  Atom+Function         Bfn.  Coefficient  Atom+Function  
  ----- ------------  ---------------      ----- ------------  ---------------
     2      2.470493  1 H  s                 21      2.470493  2 H  s          
     3     -1.276018  1 H  s                 22     -1.276018  2 H  s          
     1     -0.879811  1 H  s                 20     -0.879811  2 H  s          
    19     -0.467345  1 H  dzz               38     -0.467345  2 H  dzz        
    14     -0.456850  1 H  dxx               17     -0.456850  1 H  dyy        
 
 Vector   14  Occ=0.000000D+00  E= 1.550565D+00
              MO Center= -6.6D-14, -6.6D-14,  2.9D-14, r^2= 1.1D+00
   Bfn.  Coefficient  Atom+Function         Bfn.  Coefficient  Atom+Function  
  ----- ------------  ---------------      ----- ------------  ---------------
     8      0.559992  1 H  px                 9      0.559881  1 H  py         
    27      0.559992  2 H  px                28      0.559881  2 H  py         
    11     -0.286223  1 H  px                12     -0.286166  1 H  py         
    30     -0.286223  2 H  px                31     -0.286166  2 H  py         
    16     -0.062021  1 H  dxz               18     -0.062009  1 H  dyz        
 
 Vector   15  Occ=0.000000D+00  E= 1.550565D+00
              MO Center=  5.4D-15, -1.3D-15,  2.4D-14, r^2= 1.1D+00
   Bfn.  Coefficient  Atom+Function         Bfn.  Coefficient  Atom+Function  
  ----- ------------  ---------------      ----- ------------  ---------------
     8      0.559881  1 H  px                 9     -0.559992  1 H  py         
    27      0.559881  2 H  px                28     -0.559992  2 H  py         
    11     -0.286166  1 H  px                12      0.286223  1 H  py         
    30     -0.286166  2 H  px                31      0.286223  2 H  py         
    16     -0.062009  1 H  dxz               18      0.062021  1 H  dyz        
 
 Vector   16  Occ=0.000000D+00  E= 1.947726D+00
              MO Center=  3.2D-15, -2.4D-15,  1.7D-14, r^2= 1.7D+00
   Bfn.  Coefficient  Atom+Function         Bfn.  Coefficient  Atom+Function  
  ----- ------------  ---------------      ----- ------------  ---------------
     2      9.739600  1 H  s                 21     -9.739600  2 H  s          
     3      3.889020  1 H  s                 22     -3.889020  2 H  s          
    13      2.930879  1 H  pz                32      2.930879  2 H  pz         
    10      2.685623  1 H  pz                29      2.685623  2 H  pz         
    14     -0.413127  1 H  dxx               17     -0.413127  1 H  dyy        
 
 Vector   17  Occ=0.000000D+00  E= 2.059449D+00
              MO Center= -6.4D-15, -8.4D-15, -2.4D-14, r^2= 1.4D+00
   Bfn.  Coefficient  Atom+Function         Bfn.  Coefficient  Atom+Function  
  ----- ------------  ---------------      ----- ------------  ---------------
     2      1.945612  1 H  s                 21      1.945612  2 H  s          
    13     -0.761065  1 H  pz                32      0.761065  2 H  pz         
     3     -0.700798  1 H  s                 22     -0.700798  2 H  s          
    10      0.695208  1 H  pz                29     -0.695208  2 H  pz         
    19     -0.689127  1 H  dzz               38     -0.689127  2 H  dzz        
 
 Vector   18  Occ=0.000000D+00  E= 2.107347D+00
              MO Center=  1.5D-16,  3.3D-16, -1.5D-14, r^2= 1.1D+00
   Bfn.  Coefficient  Atom+Function         Bfn.  Coefficient  Atom+Function  
  ----- ------------  ---------------      ----- ------------  ---------------
     9      1.020572  1 H  py                28     -1.020572  2 H  py         
    12     -0.851895  1 H  py                31      0.851895  2 H  py         
     8      0.408937  1 H  px                27     -0.408937  2 H  px         
    11     -0.341350  1 H  px                30      0.341350  2 H  px         
    18     -0.140011  1 H  dyz               37     -0.140011  2 H  dyz        
 
 Vector   19  Occ=0.000000D+00  E= 2.107347D+00
              MO Center= -3.8D-15,  3.8D-15, -9.0D-15, r^2= 1.1D+00
   Bfn.  Coefficient  Atom+Function         Bfn.  Coefficient  Atom+Function  
  ----- ------------  ---------------      ----- ------------  ---------------
     8      1.020572  1 H  px                27     -1.020572  2 H  px         
    11     -0.851895  1 H  px                30      0.851895  2 H  px         
     9     -0.408937  1 H  py                28      0.408937  2 H  py         
    12      0.341350  1 H  py                31     -0.341350  2 H  py         
    16     -0.140011  1 H  dxz               35     -0.140011  2 H  dxz        
 
 Vector   20  Occ=0.000000D+00  E= 2.737597D+00
              MO Center= -2.6D-15, -2.1D-15,  1.9D-14, r^2= 5.9D-01
   Bfn.  Coefficient  Atom+Function         Bfn.  Coefficient  Atom+Function  
  ----- ------------  ---------------      ----- ------------  ---------------
    14      0.522368  1 H  dxx               17     -0.522368  1 H  dyy        
    33      0.522368  2 H  dxx               36     -0.522368  2 H  dyy        
 
 Vector   21  Occ=0.000000D+00  E= 2.737597D+00
              MO Center= -2.6D-15, -3.7D-15,  1.6D-14, r^2= 5.9D-01
   Bfn.  Coefficient  Atom+Function         Bfn.  Coefficient  Atom+Function  
  ----- ------------  ---------------      ----- ------------  ---------------
    15      1.044737  1 H  dxy               34      1.044737  2 H  dxy        
 
 Vector   22  Occ=0.000000D+00  E= 3.029058D+00
              MO Center=  1.9D-15,  8.5D-16, -5.0D-14, r^2= 1.2D+00
   Bfn.  Coefficient  Atom+Function         Bfn.  Coefficient  Atom+Function  
  ----- ------------  ---------------      ----- ------------  ---------------
     3      3.875711  1 H  s                 22     -3.875711  2 H  s          
     2      2.195059  1 H  s                 21     -2.195059  2 H  s          
    13      1.677472  1 H  pz                32      1.677472  2 H  pz         
     4     -1.029675  1 H  s                 23      1.029675  2 H  s          
    10     -0.737990  1 H  pz                29     -0.737990  2 H  pz         
 
 Vector   23  Occ=0.000000D+00  E= 3.550243D+00
              MO Center=  6.9D-17, -5.7D-16, -2.2D-14, r^2= 6.7D-01
   Bfn.  Coefficient  Atom+Function         Bfn.  Coefficient  Atom+Function  
  ----- ------------  ---------------      ----- ------------  ---------------
    16      0.806341  1 H  dxz               35     -0.806341  2 H  dxz        
    18     -0.799682  1 H  dyz               37      0.799682  2 H  dyz        
     8     -0.164112  1 H  px                27     -0.164112  2 H  px         
     9      0.162757  1 H  py                28      0.162757  2 H  py         
    11      0.052729  1 H  px                30      0.052729  2 H  px         
 
 Vector   24  Occ=0.000000D+00  E= 3.550243D+00
              MO Center=  9.5D-16,  7.8D-16, -1.7D-14, r^2= 6.7D-01
   Bfn.  Coefficient  Atom+Function         Bfn.  Coefficient  Atom+Function  
  ----- ------------  ---------------      ----- ------------  ---------------
    18      0.806341  1 H  dyz               37     -0.806341  2 H  dyz        
    16      0.799682  1 H  dxz               35     -0.799682  2 H  dxz        
     9     -0.164112  1 H  py                28     -0.164112  2 H  py         
     8     -0.162757  1 H  px                27     -0.162757  2 H  px         
    12      0.052729  1 H  py                31      0.052729  2 H  py         
 
 Vector   25  Occ=0.000000D+00  E= 3.609397D+00
              MO Center= -7.7D-16, -1.7D-15, -1.4D-14, r^2= 7.1D-01
   Bfn.  Coefficient  Atom+Function         Bfn.  Coefficient  Atom+Function  
  ----- ------------  ---------------      ----- ------------  ---------------
    15      1.548311  1 H  dxy               34     -1.548311  2 H  dxy        
 
 Vector   26  Occ=0.000000D+00  E= 3.609398D+00
              MO Center= -1.3D-15, -1.4D-15, -1.9D-14, r^2= 7.1D-01
   Bfn.  Coefficient  Atom+Function         Bfn.  Coefficient  Atom+Function  
  ----- ------------  ---------------      ----- ------------  ---------------
    14      0.774155  1 H  dxx               17     -0.774155  1 H  dyy        
    33     -0.774155  2 H  dxx               36      0.774155  2 H  dyy        
 
 Vector   27  Occ=0.000000D+00  E= 4.151617D+00
              MO Center= -3.2D-15, -3.1D-15,  5.6D-14, r^2= 1.2D+00
   Bfn.  Coefficient  Atom+Function         Bfn.  Coefficient  Atom+Function  
  ----- ------------  ---------------      ----- ------------  ---------------
     2      2.681551  1 H  s                 21      2.681551  2 H  s          
    14     -1.214719  1 H  dxx               17     -1.214719  1 H  dyy        
    33     -1.214719  2 H  dxx               36     -1.214719  2 H  dyy        
     3     -0.858514  1 H  s                 22     -0.858514  2 H  s          
    19     -0.506761  1 H  dzz               38     -0.506761  2 H  dzz        
 
 Vector   28  Occ=0.000000D+00  E= 4.811039D+00
              MO Center=  6.7D-15,  5.7D-15, -3.0D-15, r^2= 7.9D-01
   Bfn.  Coefficient  Atom+Function         Bfn.  Coefficient  Atom+Function  
  ----- ------------  ---------------      ----- ------------  ---------------
    16      2.301552  1 H  dxz               35      2.301552  2 H  dxz        
    18      2.190880  1 H  dyz               37      2.190880  2 H  dyz        
     8      1.353731  1 H  px                27     -1.353731  2 H  px         
     9      1.288636  1 H  py                28     -1.288636  2 H  py         
     5     -0.046857  1 H  px                24      0.046857  2 H  px         
 
 Vector   29  Occ=0.000000D+00  E= 4.811039D+00
              MO Center=  7.3D-15, -9.2D-15,  3.7D-15, r^2= 7.9D-01
   Bfn.  Coefficient  Atom+Function         Bfn.  Coefficient  Atom+Function  
  ----- ------------  ---------------      ----- ------------  ---------------
    18     -2.301552  1 H  dyz               37     -2.301552  2 H  dyz        
    16      2.190880  1 H  dxz               35      2.190880  2 H  dxz        
     9     -1.353731  1 H  py                28      1.353731  2 H  py         
     8      1.288636  1 H  px                27     -1.288636  2 H  px         
     6      0.046857  1 H  py                25     -0.046857  2 H  py         
 
 Vector   30  Occ=0.000000D+00  E= 4.924920D+00
              MO Center= -1.8D-14, -7.0D-15, -1.2D-13, r^2= 9.4D-01
   Bfn.  Coefficient  Atom+Function         Bfn.  Coefficient  Atom+Function  
  ----- ------------  ---------------      ----- ------------  ---------------
     2      7.631934  1 H  s                 21     -7.631934  2 H  s          
     3      2.920210  1 H  s                 22     -2.920210  2 H  s          
    13      2.110805  1 H  pz                32      2.110805  2 H  pz         
    14     -1.339771  1 H  dxx               17     -1.339771  1 H  dyy        
    33      1.339771  2 H  dxx               36      1.339771  2 H  dyy        
 
 Vector   31  Occ=0.000000D+00  E= 5.578176D+00
              MO Center= -3.2D-15, -3.1D-15,  1.2D-13, r^2= 5.5D-01
   Bfn.  Coefficient  Atom+Function         Bfn.  Coefficient  Atom+Function  
  ----- ------------  ---------------      ----- ------------  ---------------
    19      1.251007  1 H  dzz               38      1.251007  2 H  dzz        
     1     -1.059907  1 H  s                 20     -1.059907  2 H  s          
     2     -0.335968  1 H  s                 21     -0.335968  2 H  s          
    10      0.279794  1 H  pz                29     -0.279794  2 H  pz         
    13      0.270703  1 H  pz                32     -0.270703  2 H  pz         
 
 Vector   32  Occ=0.000000D+00  E= 8.691481D+00
              MO Center=  1.1D-15,  1.1D-15, -5.1D-13, r^2= 3.9D-01
   Bfn.  Coefficient  Atom+Function         Bfn.  Coefficient  Atom+Function  
  ----- ------------  ---------------      ----- ------------  ---------------
     5      0.634783  1 H  px                 6      0.631975  1 H  py         
    24      0.634783  2 H  px                25      0.631975  2 H  py         
     8     -0.366817  1 H  px                 9     -0.365194  1 H  py         
    27     -0.366817  2 H  px                28     -0.365194  2 H  py         
    11      0.107995  1 H  px                12      0.107517  1 H  py         
 
 Vector   33  Occ=0.000000D+00  E= 8.691481D+00
              MO Center=  3.7D-16, -9.4D-17, -5.1D-13, r^2= 3.9D-01
   Bfn.  Coefficient  Atom+Function         Bfn.  Coefficient  Atom+Function  
  ----- ------------  ---------------      ----- ------------  ---------------
     5      0.631975  1 H  px                 6     -0.634783  1 H  py         
    24      0.631975  2 H  px                25     -0.634783  2 H  py         
     8     -0.365194  1 H  px                 9      0.366817  1 H  py         
    27     -0.365194  2 H  px                28      0.366817  2 H  py         
    11      0.107517  1 H  px                12     -0.107995  1 H  py         
 
 Vector   34  Occ=0.000000D+00  E= 8.954108D+00
              MO Center=  4.8D-15,  5.0D-15, -1.1D-13, r^2= 4.6D-01
   Bfn.  Coefficient  Atom+Function         Bfn.  Coefficient  Atom+Function  
  ----- ------------  ---------------      ----- ------------  ---------------
    10     -1.063505  1 H  pz                29      1.063505  2 H  pz         
     7      1.037997  1 H  pz                26     -1.037997  2 H  pz         
     1      0.941694  1 H  s                 20      0.941694  2 H  s          
    19     -0.686392  1 H  dzz               38     -0.686392  2 H  dzz        
     2     -0.667190  1 H  s                 21     -0.667190  2 H  s          
 
 Vector   35  Occ=0.000000D+00  E= 8.978725D+00
              MO Center=  6.3D-15,  1.2D-14,  5.1D-13, r^2= 4.0D-01
   Bfn.  Coefficient  Atom+Function         Bfn.  Coefficient  Atom+Function  
  ----- ------------  ---------------      ----- ------------  ---------------
     6      0.816074  1 H  py                25     -0.816074  2 H  py         
     9     -0.782549  1 H  py                28      0.782549  2 H  py         
     5      0.400273  1 H  px                24     -0.400273  2 H  px         
     8     -0.383830  1 H  px                27      0.383830  2 H  px         
    12      0.333833  1 H  py                31     -0.333833  2 H  py         
 
 Vector   36  Occ=0.000000D+00  E= 8.978725D+00
              MO Center=  2.9D-15, -1.2D-15,  5.1D-13, r^2= 4.0D-01
   Bfn.  Coefficient  Atom+Function         Bfn.  Coefficient  Atom+Function  
  ----- ------------  ---------------      ----- ------------  ---------------
     5      0.816074  1 H  px                24     -0.816074  2 H  px         
     8     -0.782549  1 H  px                27      0.782549  2 H  px         
     6     -0.400273  1 H  py                25      0.400273  2 H  py         
     9      0.383830  1 H  py                28     -0.383830  2 H  py         
    11      0.333833  1 H  px                30     -0.333833  2 H  px         
 
 Vector   37  Occ=0.000000D+00  E= 1.153520D+01
              MO Center=  2.1D-15,  1.7D-15,  3.1D-14, r^2= 3.6D-01
   Bfn.  Coefficient  Atom+Function         Bfn.  Coefficient  Atom+Function  
  ----- ------------  ---------------      ----- ------------  ---------------
    10      1.365048  1 H  pz                29      1.365048  2 H  pz         
     3     -1.187326  1 H  s                 22      1.187326  2 H  s          
     7     -0.967852  1 H  pz                26     -0.967852  2 H  pz         
    13     -0.415358  1 H  pz                32     -0.415358  2 H  pz         
     1      0.400100  1 H  s                 20     -0.400100  2 H  s          
 
 Vector   38  Occ=0.000000D+00  E= 1.512695D+01
              MO Center= -4.1D-15, -6.4D-15, -8.8D-15, r^2= 7.2D-01
   Bfn.  Coefficient  Atom+Function         Bfn.  Coefficient  Atom+Function  
  ----- ------------  ---------------      ----- ------------  ---------------
    10      8.694174  1 H  pz                29      8.694174  2 H  pz         
     1      6.394901  1 H  s                 20     -6.394901  2 H  s          
    19      5.789531  1 H  dzz               38     -5.789531  2 H  dzz        
     3     -3.113686  1 H  s                 22      3.113686  2 H  s          
    14      1.952510  1 H  dxx               17      1.952510  1 H  dyy        
 

 center of mass
 --------------
 x =   0.00000000 y =   0.00000000 z =   0.00000000

 moments of inertia (a.u.)
 ------------------
           0.990421660268           0.000000000000           0.000000000000
           0.000000000000           0.990421660268           0.000000000000
           0.000000000000           0.000000000000           0.000000000000
 
     Multipole analysis of the density
     ---------------------------------
 
     L   x y z        total         alpha         beta         nuclear
     -   - - -        -----         -----         ----         -------
     0   0 0 0     -0.000000     -1.000000     -1.000000      2.000000
 
     1   1 0 0      0.000000      0.000000      0.000000      0.000000
     1   0 1 0      0.000000      0.000000      0.000000      0.000000
     1   0 0 1     -0.000000     -0.000000     -0.000000      0.000000
 
     2   2 0 0     -1.532010     -0.766005     -0.766005      0.000000
     2   1 1 0     -0.000000     -0.000000     -0.000000      0.000000
     2   1 0 1     -0.000000     -0.000000     -0.000000      0.000000
     2   0 2 0     -1.532010     -0.766005     -0.766005      0.000000
     2   0 1 1     -0.000000     -0.000000     -0.000000      0.000000
     2   0 0 2     -1.083503     -1.033118     -1.033118      0.982732
 

 Parallel integral file used      16 records with       0 large values


 Task  times  cpu:        2.2s     wall:        3.1s
 
 
                                NWChem Input Module
                                -------------------
 
 
 Summary of allocated global arrays
-----------------------------------
  No active global arrays



                         GA Statistics for process    0
                         ------------------------------

       create   destroy   get      put      acc     scatter   gather  read&inc
calls:  110      110      408      192      104        0        0       60     
number of processes/call 2.56e+00 1.71e+00 3.94e+00 0.00e+00 0.00e+00
bytes total:             1.89e+06 3.36e+05 8.38e+05 0.00e+00 0.00e+00 4.80e+02
bytes remote:            1.10e+06 1.23e+05 4.83e+05 0.00e+00 0.00e+00 0.00e+00
Max memory consumed for GA by this process: 118408 bytes
 
MA_summarize_allocated_blocks: starting scan ...
MA_summarize_allocated_blocks: scan completed: 0 heap blocks, 0 stack blocks
MA usage statistics:

	allocation statistics:
					      heap	     stack
					      ----	     -----
	current number of blocks	         0	         0
	maximum number of blocks	        21	        53
	current total bytes		         0	         0
	maximum total bytes		   1255576	  22511288
	maximum total K-bytes		      1256	     22512
	maximum total M-bytes		         2	        23
 
 
                                     CITATION
                                     --------
                Please cite the following reference when publishing
                           results obtained with NWChem:
 
                 M. Valiev, E.J. Bylaska, N. Govind, K. Kowalski,
              T.P. Straatsma, H.J.J. van Dam, D. Wang, J. Nieplocha,
                        E. Apra, T.L. Windus, W.A. de Jong
                 "NWChem: a comprehensive and scalable open-source
                  solution for large scale molecular simulations"
                      Comput. Phys. Commun. 181, 1477 (2010)
                           doi:10.1016/j.cpc.2010.04.018
 
                                      AUTHORS
                                      -------
          E. Apra, E. J. Bylaska, W. A. de Jong, N. Govind, K. Kowalski,
       T. P. Straatsma, M. Valiev, H. J. J. van Dam, D. Wang, T. L. Windus,
        J. Hammond, J. Autschbach, K. Bhaskaran-Nair, J. Brabec, K. Lopata,
    S. A. Fischer, S. Krishnamoorthy, M. Jacquelin, W. Ma, M. Klemm, O. Villa,
      Y. Chen, V. Anisimov, F. Aquino, S. Hirata, M. T. Hackler, V. Konjkov,
            D. Mejia-Rodriguez, T. Risthaus, M. Malagoli, A. Marenich,
   A. Otero-de-la-Roza, J. Mullin, P. Nichols, R. Peverati, J. Pittner, Y. Zhao,
        P.-D. Fan, A. Fonari, M. J. Williamson, R. J. Harrison, J. R. Rehr,
      M. Dupuis, D. Silverstein, D. M. A. Smith, J. Nieplocha, V. Tipparaju,
    M. Krishnan, B. E. Van Kuiken, A. Vazquez-Mayagoitia, L. Jensen, M. Swart,
      Q. Wu, T. Van Voorhis, A. A. Auer, M. Nooijen, L. D. Crosby, E. Brown,
      G. Cisneros, G. I. Fann, H. Fruchtl, J. Garza, K. Hirao, R. A. Kendall,
      J. A. Nichols, K. Tsemekhman, K. Wolinski, J. Anchell, D. E. Bernholdt,
      P. Borowski, T. Clark, D. Clerc, H. Dachsel, M. J. O. Deegan, K. Dyall,
    D. Elwood, E. Glendening, M. Gutowski, A. C. Hess, J. Jaffe, B. G. Johnson,
     J. Ju, R. Kobayashi, R. Kutteh, Z. Lin, R. Littlefield, X. Long, B. Meng,
      T. Nakajima, S. Niu, L. Pollack, M. Rosing, K. Glaesemann, G. Sandrone,
      M. Stave, H. Taylor, G. Thomas, J. H. van Lenthe, A. T. Wong, Z. Zhang.

 Total times  cpu:        2.2s     wall:        3.4s
