 argument  1 = /storage/home/rabeet/work/nwc/bh6/nwtpss/H2O.nw
  NWChem w/ OpenMP: maximum threads =  1
                                         
                                         
 
 
              Northwest Computational Chemistry Package (NWChem) 6.8
              ------------------------------------------------------
 
 
                    Environmental Molecular Sciences Laboratory
                       Pacific Northwest National Laboratory
                                Richland, WA 99352
 
                              Copyright (c) 1994-2018
                       Pacific Northwest National Laboratory
                            Battelle Memorial Institute
 
             NWChem is an open-source computational chemistry package
                        distributed under the terms of the
                      Educational Community License (ECL) 2.0
             A copy of the license is included with this distribution
                              in the LICENSE.TXT file
 
                                  ACKNOWLEDGMENT
                                  --------------

            This software and its documentation were developed at the
            EMSL at Pacific Northwest National Laboratory, a multiprogram
            national laboratory, operated for the U.S. Department of Energy
            by Battelle under Contract Number DE-AC05-76RL01830. Support
            for this work was provided by the Department of Energy Office
            of Biological and Environmental Research, Office of Basic
            Energy Sciences, and the Office of Advanced Scientific Computing.


           Job information
           ---------------

    hostname        = r8n4.niserhpc.org
    program         = /home/rabeet/nwchem-6.8/bin/LINUX64/nwchem
    date            = Sun Oct 27 08:44:02 2019

    compiled        = Fri_Jun_28_18:24:12_2019
    source          = /home/rabeet/nwchem-6.8
    nwchem branch   = Development
    nwchem revision = N/A
    ga revision     = 5.6.5
    use scalapack   = T
    input           = /storage/home/rabeet/work/nwc/bh6/nwtpss/H2O.nw
    prefix          = H2O.
    data base       = ./H2O.db
    status          = startup
    nproc           =       16
    time left       =     -1s



           Memory information
           ------------------

    heap     =   13107198 doubles =    100.0 Mbytes
    stack    =   13107195 doubles =    100.0 Mbytes
    global   =   26214400 doubles =    200.0 Mbytes (distinct from heap & stack)
    total    =   52428793 doubles =    400.0 Mbytes
    verify   = yes
    hardfail = no 


           Directory information
           ---------------------
 
  0 permanent = .
  0 scratch   = .
 
 
 
 
                                NWChem Input Module
                                -------------------
 
 

 Scaling coordinates for geometry "geometry" by  1.889725989
 (inverse scale =  0.529177249)


          ------
          auto-z
          ------
  no constraints, skipping   0.000000000000000E+000
  no constraints, skipping   0.000000000000000E+000
 
 
                             Geometry "geometry" -> ""
                             -------------------------
 
 Output coordinates in angstroms (scale by  1.889725989 to convert to a.u.)
 
  No.       Tag          Charge          X              Y              Z
 ---- ---------------- ---------- -------------- -------------- --------------
    1 O                    8.0000    -0.09263600     0.00000000    -0.07170400
    2 H                    1.0000    -0.09263600     0.00000000     0.88520600
    3 H                    1.0000     0.83372400     0.00000000    -0.31157400
 
      Atomic Mass 
      ----------- 
 
      O                 15.994910
      H                  1.007825
 

 Effective nuclear repulsion energy (a.u.)       9.1977493655

            Nuclear Dipole moment (a.u.) 
            ----------------------------
        X                 Y               Z
 ---------------- ---------------- ----------------
     0.0000000000     0.0000000000    -0.0000000000
 


                                Z-matrix (autoz)
                                -------- 

 Units are Angstrom for bonds and degrees for angles
 
      Type          Name      I     J     K     L     M      Value
      ----------- --------  ----- ----- ----- ----- ----- ----------
    1 Stretch                  1     2                       0.95691
    2 Stretch                  1     3                       0.95691
    3 Bend                     2     1     3               104.51722
 
 
            XYZ format geometry
            -------------------
     3
 geometry
 O                    -0.09263600     0.00000000    -0.07170400
 H                    -0.09263600     0.00000000     0.88520600
 H                     0.83372400     0.00000000    -0.31157400
 
 ==============================================================================
                                internuclear distances
 ------------------------------------------------------------------------------
       center one      |      center two      | atomic units |  angstroms
 ------------------------------------------------------------------------------
    2 H                |   1 O                |     1.80830  |     0.95691
    3 H                |   1 O                |     1.80830  |     0.95691
 ------------------------------------------------------------------------------
                         number of included internuclear distances:          2
 ==============================================================================



 ==============================================================================
                                 internuclear angles
 ------------------------------------------------------------------------------
        center 1       |       center 2       |       center 3       |  degrees
 ------------------------------------------------------------------------------
    2 H                |   1 O                |   3 H                |   104.52
 ------------------------------------------------------------------------------
                            number of included internuclear angles:          1
 ==============================================================================





 Summary of "ao basis" -> "" (cartesian)
 ------------------------------------------------------------------------------
       Tag                 Description            Shells   Functions and Types
 ---------------- ------------------------------  ------  ---------------------
 *                     6-311++G(3df,3pd)              on all atoms 


 
                                 NWChem DFT Module
                                 -----------------
 
 
                      Basis "ao basis" -> "ao basis" (cartesian)
                      -----
  O (Oxygen)
  ----------
            Exponent  Coefficients 
       -------------- ---------------------------------------------------------
  1 S  8.58850000E+03  0.001895
  1 S  1.29723000E+03  0.014386
  1 S  2.99296000E+02  0.070732
  1 S  8.73771000E+01  0.240001
  1 S  2.56789000E+01  0.594797
  1 S  3.74004000E+00  0.280802
 
  2 S  4.21175000E+01  0.113889
  2 S  9.62837000E+00  0.920811
  2 S  2.85332000E+00 -0.003274
 
  3 P  4.21175000E+01  0.036511
  3 P  9.62837000E+00  0.237153
  3 P  2.85332000E+00  0.819702
 
  4 S  9.05661000E-01  1.000000
 
  5 P  9.05661000E-01  1.000000
 
  6 S  2.55611000E-01  1.000000
 
  7 P  2.55611000E-01  1.000000
 
  8 S  8.45000000E-02  1.000000
 
  9 P  8.45000000E-02  1.000000
 
 10 D  5.16000000E+00  1.000000
 
 11 D  1.29200000E+00  1.000000
 
 12 D  3.22500000E-01  1.000000
 
 13 F  1.40000000E+00  1.000000
 
  H (Hydrogen)
  ------------
            Exponent  Coefficients 
       -------------- ---------------------------------------------------------
  1 S  3.38650000E+01  0.025494
  1 S  5.09479000E+00  0.190373
  1 S  1.15879000E+00  0.852161
 
  2 S  3.25840000E-01  1.000000
 
  3 S  1.02741000E-01  1.000000
 
  4 S  3.60000000E-02  1.000000
 
  5 P  3.00000000E+00  1.000000
 
  6 P  7.50000000E-01  1.000000
 
  7 P  1.87500000E-01  1.000000
 
  8 D  1.00000000E+00  1.000000
 


 Summary of "ao basis" -> "ao basis" (cartesian)
 ------------------------------------------------------------------------------
       Tag                 Description            Shells   Functions and Types
 ---------------- ------------------------------  ------  ---------------------
 O                     6-311++G(3df,3pd)            13       45   5s4p3d1f
 H                     6-311++G(3df,3pd)             8       19   4s3p1d




 Summary of "ao basis" -> "ao basis" (cartesian)
 ------------------------------------------------------------------------------
       Tag                 Description            Shells   Functions and Types
 ---------------- ------------------------------  ------  ---------------------
 O                     6-311++G(3df,3pd)            13       45   5s4p3d1f
 H                     6-311++G(3df,3pd)             8       19   4s3p1d


  Caching 1-el integrals 
 
            General Information
            -------------------
          SCF calculation type: DFT
          Wavefunction type:  closed shell.
          No. of atoms     :     3
          No. of electrons :    10
           Alpha electrons :     5
            Beta electrons :     5
          Charge           :     0
          Spin multiplicity:     1
          Use of symmetry is: off; symmetry adaption is: off
          Maximum number of iterations: ***
          AO basis - number of functions:    83
                     number of shells:    29
          Convergence on energy requested:  1.00D-06
          Convergence on density requested:  1.00D-05
          Convergence on gradient requested:  5.00D-04
 
              XC Information
              --------------
                  TPSS metaGGA Exchange Functional  1.000          
             TPSS03 metaGGA Correlation Functional  1.000          
 
             Grid Information
             ----------------
          Grid used for XC integration:  medium    
          Radial quadrature: Mura-Knowles        
          Angular quadrature: Lebedev. 
          Tag              B.-S. Rad. Rad. Pts. Rad. Cut. Ang. Pts.
          ---              ---------- --------- --------- ---------
          O                   0.60       49           8.0       434
          H                   0.35       45          11.0       434
          Grid pruning is: on 
          Number of quadrature shells:   139
          Spatial weights used:  Erf1
 
          Convergence Information
          -----------------------
          Convergence aids based upon iterative change in 
          total energy or number of iterations. 
          Levelshifting, if invoked, occurs when the 
          HOMO/LUMO gap drops below (HL_TOL):  1.00D-02
          DIIS, if invoked, will attempt to extrapolate 
          using up to (NFOCK): 10 stored Fock matrices.

                    Damping( 0%)  Levelshifting(0.5)       DIIS
                  --------------- ------------------- ---------------
          dE  on:    start            ASAP                start   
          dE off:    2 iters        *** iters           *** iters 

 
      Screening Tolerance Information
      -------------------------------
          Density screening/tol_rho:  1.00D-10
          AO Gaussian exp screening on grid/accAOfunc:  14
          CD Gaussian exp screening on grid/accCDfunc:  20
          XC Gaussian exp screening on grid/accXCfunc:  20
          Schwarz screening/accCoul:  1.00D-08

 
      Superposition of Atomic Density Guess
      -------------------------------------
 
 Sum of atomic energies:         -75.77742205
 
      Non-variational initial energy
      ------------------------------

 Total energy =     -75.940625
 1-e energy   =    -121.712803
 2-e energy   =      36.574429
 HOMO         =      -0.482820
 LUMO         =       0.016000
 
   Time after variat. SCF:      0.6
   Time prior to 1st pass:      0.6

 Integral file          = ./H2O.aoints.00
 Record size in doubles =    65536    No. of integs per rec  =    43688
 Max. records in memory =       13    Max. records in file   =  8903965
 No. of bits per label  =        8    No. of bits per value  =       64


 #quartets = 9.483D+04 #integrals = 2.718D+06 #direct =  0.0% #cached =100.0%


File balance: exchanges=     0  moved=     0  time=   0.0


 Grid_pts file          = ./H2O.gridpts.00
 Record size in doubles =  12289        No. of grid_pts per rec  =   3070
 Max. records in memory =      3        Max. recs in file   = 189932040


           Memory utilization after 1st SCF pass: 
           Heap Space remaining (MW):       12.22            12215446
          Stack Space remaining (MW):       13.11            13106644

   convergence    iter        energy       DeltaE   RMS-Dens  Diis-err    time
 ---------------- ----- ----------------- --------- --------- ---------  ------
 d= 0,ls=0.0,diis     1    -76.4231850844 -8.56D+01  8.76D-03  4.85D-01     2.7
 d= 0,ls=0.0,diis     2    -76.3672520035  5.59D-02  5.57D-03  1.08D+00     2.8
 d= 0,ls=0.0,diis     3    -76.4630944015 -9.58D-02  7.00D-04  3.63D-02     2.8
 d= 0,ls=0.0,diis     4    -76.4658276042 -2.73D-03  1.40D-04  7.78D-04     2.9
 d= 0,ls=0.0,diis     5    -76.4658924496 -6.48D-05  1.29D-05  1.09D-05     3.0
  Resetting Diis
 d= 0,ls=0.0,diis     6    -76.4658935169 -1.07D-06  2.85D-06  1.04D-07     3.1
 d= 0,ls=0.0,diis     7    -76.4658935257 -8.80D-09  2.36D-07  4.99D-10     3.2


         Total DFT energy =      -76.465893525707
      One electron energy =     -123.040046728470
           Coulomb energy =       46.714506508940
          Exchange energy =       -9.010566482992
       Correlation energy =       -0.327536188708
 Nuclear repulsion energy =        9.197749365524

 Numeric. integr. density =       10.000001126731

     Total iterative time =      2.6s


 
                       DFT Final Molecular Orbital Analysis
                       ------------------------------------
 
 Vector    1  Occ=2.000000D+00  E=-1.888738D+01
              MO Center= -9.3D-02,  3.2D-14, -7.2D-02, r^2= 1.5D-02
   Bfn.  Coefficient  Atom+Function         Bfn.  Coefficient  Atom+Function  
  ----- ------------  ---------------      ----- ------------  ---------------
     1      0.551829  1 O  s                  2      0.470166  1 O  s          
 
 Vector    2  Occ=2.000000D+00  E=-9.535263D-01
              MO Center=  6.7D-02,  7.7D-12,  5.2D-02, r^2= 4.9D-01
   Bfn.  Coefficient  Atom+Function         Bfn.  Coefficient  Atom+Function  
  ----- ------------  ---------------      ----- ------------  ---------------
     6      0.564503  1 O  s                 10      0.531178  1 O  s          
     2     -0.203795  1 O  s                  1     -0.113580  1 O  s          
    46      0.099487  2 H  s                 65      0.099487  3 H  s          
    47      0.066305  2 H  s                 66      0.066304  3 H  s          
     7      0.065373  1 O  px                33     -0.060413  1 O  dyy        
 
 Vector    3  Occ=2.000000D+00  E=-4.903746D-01
              MO Center=  7.7D-02,  2.9D-12,  5.9D-02, r^2= 7.7D-01
   Bfn.  Coefficient  Atom+Function         Bfn.  Coefficient  Atom+Function  
  ----- ------------  ---------------      ----- ------------  ---------------
     9      0.265459  1 O  pz                13      0.217343  1 O  pz         
     7     -0.205476  1 O  px                 5      0.194577  1 O  pz         
    11     -0.168232  1 O  px                46      0.158597  2 H  s          
    65     -0.158597  3 H  s                  3     -0.150611  1 O  px         
    47      0.123240  2 H  s                 66     -0.123240  3 H  s          
 
 Vector    4  Occ=2.000000D+00  E=-3.475826D-01
              MO Center= -1.4D-01,  8.7D-12, -1.1D-01, r^2= 7.4D-01
   Bfn.  Coefficient  Atom+Function         Bfn.  Coefficient  Atom+Function  
  ----- ------------  ---------------      ----- ------------  ---------------
    10      0.356888  1 O  s                  7     -0.281181  1 O  px         
    11     -0.249718  1 O  px                 9     -0.217646  1 O  pz         
     6      0.214323  1 O  s                  3     -0.208630  1 O  px         
    13     -0.193292  1 O  pz                 5     -0.161488  1 O  pz         
    46     -0.095448  2 H  s                 65     -0.095448  3 H  s          
 
 Vector    5  Occ=2.000000D+00  E=-2.694034D-01
              MO Center= -6.0D-02, -1.1D-11, -4.6D-02, r^2= 7.1D-01
   Bfn.  Coefficient  Atom+Function         Bfn.  Coefficient  Atom+Function  
  ----- ------------  ---------------      ----- ------------  ---------------
     8      0.416187  1 O  py                12      0.388578  1 O  py         
     4      0.300425  1 O  py                16      0.099658  1 O  py         
    31      0.028568  1 O  dxy        
 
 Vector    6  Occ=0.000000D+00  E=-2.566845D-02
              MO Center=  6.1D-01,  2.1D-11,  4.7D-01, r^2= 6.4D+00
   Bfn.  Coefficient  Atom+Function         Bfn.  Coefficient  Atom+Function  
  ----- ------------  ---------------      ----- ------------  ---------------
    14      0.791821  1 O  s                 49     -0.573098  2 H  s          
    68     -0.573101  3 H  s                 10      0.343385  1 O  s          
    48     -0.333549  2 H  s                 67     -0.333552  3 H  s          
     6      0.169354  1 O  s                 11      0.126174  1 O  px         
    47     -0.110751  2 H  s                 66     -0.110752  3 H  s          
 
 Vector    7  Occ=0.000000D+00  E= 2.853023D-02
              MO Center=  5.5D-01,  3.6D-12,  4.3D-01, r^2= 9.9D+00
   Bfn.  Coefficient  Atom+Function         Bfn.  Coefficient  Atom+Function  
  ----- ------------  ---------------      ----- ------------  ---------------
    49      2.045480  2 H  s                 68     -2.045476  3 H  s          
    17     -0.302815  1 O  pz                15      0.234392  1 O  px         
    48      0.213229  2 H  s                 67     -0.213231  3 H  s          
     9     -0.108374  1 O  pz                 7      0.083887  1 O  px         
    58      0.075251  2 H  pz                 5     -0.074205  1 O  pz         
 
 Vector    8  Occ=0.000000D+00  E= 1.297921D-01
              MO Center=  3.7D-01, -2.3D-11,  2.8D-01, r^2= 7.9D+00
   Bfn.  Coefficient  Atom+Function         Bfn.  Coefficient  Atom+Function  
  ----- ------------  ---------------      ----- ------------  ---------------
    48      2.142232  2 H  s                 67      2.142385  3 H  s          
    14     -1.353432  1 O  s                 49     -0.903764  2 H  s          
    68     -0.903830  3 H  s                 10     -0.390111  1 O  s          
    11     -0.275070  1 O  px                15     -0.269948  1 O  px         
     6     -0.239615  1 O  s                 13     -0.212896  1 O  pz         
 
 Vector    9  Occ=0.000000D+00  E= 1.416582D-01
              MO Center= -5.2D-03,  3.9D-12, -4.0D-03, r^2= 6.3D+00
   Bfn.  Coefficient  Atom+Function         Bfn.  Coefficient  Atom+Function  
  ----- ------------  ---------------      ----- ------------  ---------------
    48      4.066013  2 H  s                 67     -4.065984  3 H  s          
    17     -1.587153  1 O  pz                49     -1.392844  2 H  s          
    68      1.392820  3 H  s                 15      1.228568  1 O  px         
    13     -0.651427  1 O  pz                11      0.504210  1 O  px         
    58     -0.461403  2 H  pz                75      0.423693  3 H  px         
 
 Vector   10  Occ=0.000000D+00  E= 1.451581D-01
              MO Center= -4.3D-01,  6.9D-10, -3.3D-01, r^2= 5.3D+00
   Bfn.  Coefficient  Atom+Function         Bfn.  Coefficient  Atom+Function  
  ----- ------------  ---------------      ----- ------------  ---------------
    14      1.999743  1 O  s                 48     -1.957308  2 H  s          
    67     -1.957111  3 H  s                 15      1.608749  1 O  px         
    17      1.245304  1 O  pz                49      0.289632  2 H  s          
    68      0.289572  3 H  s                  6      0.265441  1 O  s          
    11     -0.265862  1 O  px                33      0.223735  1 O  dyy        
 
 Vector   11  Occ=0.000000D+00  E= 1.451992D-01
              MO Center= -1.4D-01, -6.1D-10, -1.1D-01, r^2= 5.0D+00
   Bfn.  Coefficient  Atom+Function         Bfn.  Coefficient  Atom+Function  
  ----- ------------  ---------------      ----- ------------  ---------------
    16      1.301158  1 O  py                12     -0.451869  1 O  py         
     8     -0.163639  1 O  py                 4     -0.136796  1 O  py         
    57     -0.080240  2 H  py                76     -0.080239  3 H  py         
    31      0.046144  1 O  dxy               34      0.035718  1 O  dyz        
 
 Vector   12  Occ=0.000000D+00  E= 1.977644D-01
              MO Center=  2.0D-01, -6.8D-11,  1.6D-01, r^2= 6.4D+00
   Bfn.  Coefficient  Atom+Function         Bfn.  Coefficient  Atom+Function  
  ----- ------------  ---------------      ----- ------------  ---------------
    14     12.162058  1 O  s                 48     -6.228991  2 H  s          
    67     -6.228953  3 H  s                 15      2.547264  1 O  px         
    17      1.971703  1 O  pz                10      1.410704  1 O  s          
    58      0.806856  2 H  pz                75      0.788150  3 H  px         
    11      0.646807  1 O  px                47     -0.605256  2 H  s          
 
 Vector   13  Occ=0.000000D+00  E= 2.118945D-01
              MO Center= -6.3D-02,  6.2D-12, -4.8D-02, r^2= 8.0D+00
   Bfn.  Coefficient  Atom+Function         Bfn.  Coefficient  Atom+Function  
  ----- ------------  ---------------      ----- ------------  ---------------
    17      2.452221  1 O  pz                48     -2.172293  2 H  s          
    67      2.172317  3 H  s                 49     -2.069772  2 H  s          
    68      2.069769  3 H  s                 15     -1.898133  1 O  px         
    75     -0.456474  3 H  px                58      0.449951  2 H  pz         
    47     -0.317069  2 H  s                 66      0.317070  3 H  s          
 
 Vector   14  Occ=0.000000D+00  E= 3.192887D-01
              MO Center=  2.4D-01, -2.3D-12,  1.8D-01, r^2= 3.6D+00
   Bfn.  Coefficient  Atom+Function         Bfn.  Coefficient  Atom+Function  
  ----- ------------  ---------------      ----- ------------  ---------------
    14      4.707216  1 O  s                 48     -2.776611  2 H  s          
    67     -2.776596  3 H  s                 15      1.718601  1 O  px         
    17      1.330276  1 O  pz                77     -1.040783  3 H  pz         
    56     -1.011553  2 H  px                11      0.683710  1 O  px         
    10      0.539194  1 O  s                 13      0.529222  1 O  pz         
 
 Vector   15  Occ=0.000000D+00  E= 3.457967D-01
              MO Center=  4.0D-01, -7.4D-12,  3.1D-01, r^2= 3.1D+00
   Bfn.  Coefficient  Atom+Function         Bfn.  Coefficient  Atom+Function  
  ----- ------------  ---------------      ----- ------------  ---------------
    57      1.040483  2 H  py                76     -1.040490  3 H  py         
    34     -0.140808  1 O  dyz               31      0.108991  1 O  dxy        
    28      0.046250  1 O  dyz               25     -0.035800  1 O  dxy        
    79      0.027747  3 H  dxy               63     -0.026369  2 H  dyz        
 
 Vector   16  Occ=0.000000D+00  E= 3.855372D-01
              MO Center=  2.4D-01, -1.5D-11,  1.9D-01, r^2= 3.5D+00
   Bfn.  Coefficient  Atom+Function         Bfn.  Coefficient  Atom+Function  
  ----- ------------  ---------------      ----- ------------  ---------------
    57      1.193325  2 H  py                76      1.193316  3 H  py         
    16     -1.037949  1 O  py                12     -0.750625  1 O  py         
     8     -0.079167  1 O  py                31     -0.078729  1 O  dxy        
     4     -0.074288  1 O  py                34     -0.060941  1 O  dyz        
    25      0.034234  1 O  dxy               63     -0.028194  2 H  dyz        
 
 Vector   17  Occ=0.000000D+00  E= 4.127776D-01
              MO Center=  1.0D-01, -2.8D-12,  7.7D-02, r^2= 5.6D+00
   Bfn.  Coefficient  Atom+Function         Bfn.  Coefficient  Atom+Function  
  ----- ------------  ---------------      ----- ------------  ---------------
    48      7.585343  2 H  s                 67     -7.585366  3 H  s          
    17     -2.337350  1 O  pz                58     -2.047487  2 H  pz         
    75      2.004617  3 H  px                15      1.809214  1 O  px         
    13     -1.415592  1 O  pz                49     -1.250482  2 H  s          
    68      1.250490  3 H  s                 11      1.095725  1 O  px         
 
 Vector   18  Occ=0.000000D+00  E= 4.727552D-01
              MO Center=  3.0D-01,  5.2D-12,  2.3D-01, r^2= 4.7D+00
   Bfn.  Coefficient  Atom+Function         Bfn.  Coefficient  Atom+Function  
  ----- ------------  ---------------      ----- ------------  ---------------
    14      8.562190  1 O  s                 48     -7.213689  2 H  s          
    67     -7.213575  3 H  s                 10      2.207964  1 O  s          
    15      1.876072  1 O  px                58      1.781921  2 H  pz         
    75      1.758218  3 H  px                17      1.452190  1 O  pz         
    35      1.005342  1 O  dzz               30      0.940372  1 O  dxx        
 
 Vector   19  Occ=0.000000D+00  E= 5.470525D-01
              MO Center=  3.9D-01,  5.5D-13,  3.0D-01, r^2= 4.1D+00
   Bfn.  Coefficient  Atom+Function         Bfn.  Coefficient  Atom+Function  
  ----- ------------  ---------------      ----- ------------  ---------------
    56      1.805948  2 H  px                77     -1.813531  3 H  pz         
    17      1.436478  1 O  pz                15     -1.111902  1 O  px         
    49     -0.827775  2 H  s                 68      0.827774  3 H  s          
    13      0.600751  1 O  pz                47     -0.523185  2 H  s          
    66      0.523189  3 H  s                 11     -0.465014  1 O  px         
 
 Vector   20  Occ=0.000000D+00  E= 6.357077D-01
              MO Center=  5.6D-01,  2.1D-12,  4.4D-01, r^2= 4.2D+00
   Bfn.  Coefficient  Atom+Function         Bfn.  Coefficient  Atom+Function  
  ----- ------------  ---------------      ----- ------------  ---------------
    14      9.846229  1 O  s                 10      7.517205  1 O  s          
    48     -6.208317  2 H  s                 67     -6.208402  3 H  s          
    47     -3.410676  2 H  s                 66     -3.410698  3 H  s          
    58      3.362139  2 H  pz                75      3.251064  3 H  px         
    11      2.249313  1 O  px                13      1.741037  1 O  pz         
 
 Vector   21  Occ=0.000000D+00  E= 7.143063D-01
              MO Center=  5.6D-01, -1.4D-12,  4.3D-01, r^2= 4.1D+00
   Bfn.  Coefficient  Atom+Function         Bfn.  Coefficient  Atom+Function  
  ----- ------------  ---------------      ----- ------------  ---------------
    48      7.836787  2 H  s                 67     -7.836697  3 H  s          
    58     -4.381036  2 H  pz                75      4.159954  3 H  px         
    47      4.063670  2 H  s                 66     -4.063600  3 H  s          
    13     -3.558572  1 O  pz                11      2.754454  1 O  px         
    17     -1.983978  1 O  pz                15      1.535668  1 O  px         
 
 Vector   22  Occ=0.000000D+00  E= 8.622481D-01
              MO Center=  6.4D-02,  6.1D-11,  4.9D-02, r^2= 2.8D+00
   Bfn.  Coefficient  Atom+Function         Bfn.  Coefficient  Atom+Function  
  ----- ------------  ---------------      ----- ------------  ---------------
    14      3.474808  1 O  s                 33     -2.410195  1 O  dyy        
    10      1.313981  1 O  s                 30     -1.104982  1 O  dxx        
    35     -0.977614  1 O  dzz               15      0.646833  1 O  px         
    58     -0.535957  2 H  pz                75     -0.512118  3 H  px         
    17      0.500672  1 O  pz                32     -0.491892  1 O  dxz        
 
 Vector   23  Occ=0.000000D+00  E= 9.027684D-01
              MO Center= -3.8D-01,  9.4D-11, -2.9D-01, r^2= 2.0D+00
   Bfn.  Coefficient  Atom+Function         Bfn.  Coefficient  Atom+Function  
  ----- ------------  ---------------      ----- ------------  ---------------
    31      1.463610  1 O  dxy               34      1.132894  1 O  dyz        
    16      0.926778  1 O  py                57     -0.655028  2 H  py         
    76     -0.655029  3 H  py                12     -0.344529  1 O  py         
     8      0.337387  1 O  py                 4      0.153170  1 O  py         
    37      0.050258  1 O  fxxy              44      0.046309  1 O  fyzz       
 
 Vector   24  Occ=0.000000D+00  E= 9.135967D-01
              MO Center= -6.8D-01, -1.3D-10, -5.3D-01, r^2= 1.8D+00
   Bfn.  Coefficient  Atom+Function         Bfn.  Coefficient  Atom+Function  
  ----- ------------  ---------------      ----- ------------  ---------------
    48      1.720556  2 H  s                 67      1.720530  3 H  s          
    14     -1.558946  1 O  s                 30     -1.421737  1 O  dxx        
    35     -1.237650  1 O  dzz               10      1.203130  1 O  s          
    15     -1.115275  1 O  px                33     -0.884898  1 O  dyy        
    17     -0.863275  1 O  pz                11      0.725007  1 O  px         
 
 Vector   25  Occ=0.000000D+00  E= 9.632164D-01
              MO Center=  8.8D-03,  4.3D-11,  6.8D-03, r^2= 2.2D+00
   Bfn.  Coefficient  Atom+Function         Bfn.  Coefficient  Atom+Function  
  ----- ------------  ---------------      ----- ------------  ---------------
    34      1.990080  1 O  dyz               31     -1.540408  1 O  dxy        
    57     -0.960670  2 H  py                76      0.960671  3 H  py         
    63      0.082247  2 H  dyz               79     -0.080285  3 H  dxy        
    37     -0.051644  1 O  fxxy              44      0.051645  1 O  fyzz       
    28      0.032435  1 O  dyz               40      0.026745  1 O  fxyz       
 
 Vector   26  Occ=0.000000D+00  E= 9.960700D-01
              MO Center= -3.0D-01, -3.8D-11, -2.3D-01, r^2= 2.5D+00
   Bfn.  Coefficient  Atom+Function         Bfn.  Coefficient  Atom+Function  
  ----- ------------  ---------------      ----- ------------  ---------------
    13      1.054498  1 O  pz                49      0.911706  2 H  s          
    68     -0.911706  3 H  s                 11     -0.816198  1 O  px         
    47      0.764981  2 H  s                 66     -0.764996  3 H  s          
    30      0.702094  1 O  dxx               35     -0.702090  1 O  dzz        
    17     -0.643580  1 O  pz                48     -0.581025  2 H  s          
 
 Vector   27  Occ=0.000000D+00  E= 1.009702D+00
              MO Center=  2.2D-01, -4.4D-12,  1.7D-01, r^2= 2.2D+00
   Bfn.  Coefficient  Atom+Function         Bfn.  Coefficient  Atom+Function  
  ----- ------------  ---------------      ----- ------------  ---------------
    32      2.484282  1 O  dxz               14      2.374656  1 O  s          
    11      1.397758  1 O  px                10      1.267129  1 O  s          
    48     -1.132498  2 H  s                 67     -1.132507  3 H  s          
    13      1.081910  1 O  pz                56     -1.050715  2 H  px         
    77     -1.012278  3 H  pz                33     -0.781378  1 O  dyy        
 
 Vector   28  Occ=0.000000D+00  E= 1.051206D+00
              MO Center=  2.7D-01, -2.5D-11,  2.1D-01, r^2= 1.9D+00
   Bfn.  Coefficient  Atom+Function         Bfn.  Coefficient  Atom+Function  
  ----- ------------  ---------------      ----- ------------  ---------------
    12      2.159977  1 O  py                31      1.211673  1 O  dxy        
    34      0.937897  1 O  dyz               57     -0.892851  2 H  py         
    76     -0.892844  3 H  py                 8     -0.616344  1 O  py         
     4     -0.256304  1 O  py                63      0.112516  2 H  dyz        
    79      0.109160  3 H  dxy               42     -0.088820  1 O  fyyy       
 
 Vector   29  Occ=0.000000D+00  E= 1.365061D+00
              MO Center=  9.8D-02, -2.4D-12,  7.6D-02, r^2= 2.7D+00
   Bfn.  Coefficient  Atom+Function         Bfn.  Coefficient  Atom+Function  
  ----- ------------  ---------------      ----- ------------  ---------------
    10      8.601385  1 O  s                 14      8.090681  1 O  s          
    48     -6.587996  2 H  s                 67     -6.587920  3 H  s          
    47     -5.744560  2 H  s                 66     -5.744455  3 H  s          
    11      4.649376  1 O  px                35      3.618689  1 O  dzz        
    13      3.598882  1 O  pz                58      3.303802  2 H  pz         
 
 Vector   30  Occ=0.000000D+00  E= 1.451262D+00
              MO Center=  3.8D-02, -5.3D-12,  3.0D-02, r^2= 2.7D+00
   Bfn.  Coefficient  Atom+Function         Bfn.  Coefficient  Atom+Function  
  ----- ------------  ---------------      ----- ------------  ---------------
    13      8.151098  1 O  pz                47     -8.187526  2 H  s          
    66      8.187533  3 H  s                 48     -6.452238  2 H  s          
    67      6.452267  3 H  s                 11     -6.309316  1 O  px         
    58      3.729857  2 H  pz                75     -3.678453  3 H  px         
    30     -3.481946  1 O  dxx               35      3.481926  1 O  dzz        
 
 Vector   31  Occ=0.000000D+00  E= 1.770980D+00
              MO Center=  2.5D-01,  6.7D-13,  1.9D-01, r^2= 1.5D+00
   Bfn.  Coefficient  Atom+Function         Bfn.  Coefficient  Atom+Function  
  ----- ------------  ---------------      ----- ------------  ---------------
    54     -0.987957  2 H  py                73      0.987963  3 H  py         
    34      0.945986  1 O  dyz               31     -0.732235  1 O  dxy        
    57      0.262285  2 H  py                76     -0.262289  3 H  py         
    28     -0.109479  1 O  dyz               25      0.084742  1 O  dxy        
    51      0.056298  2 H  py                70     -0.056298  3 H  py         
 
 Vector   32  Occ=0.000000D+00  E= 1.839848D+00
              MO Center=  4.7D-01,  2.4D-12,  3.6D-01, r^2= 2.6D+00
   Bfn.  Coefficient  Atom+Function         Bfn.  Coefficient  Atom+Function  
  ----- ------------  ---------------      ----- ------------  ---------------
    10      9.252910  1 O  s                 47     -6.650179  2 H  s          
    66     -6.650404  3 H  s                 11      2.905806  1 O  px         
    14      2.594184  1 O  s                 13      2.249123  1 O  pz         
    58      1.954433  2 H  pz                75      1.875250  3 H  px         
    46      1.122977  2 H  s                 65      1.123031  3 H  s          
 
 Vector   33  Occ=0.000000D+00  E= 1.870431D+00
              MO Center=  3.2D-01, -2.6D-12,  2.5D-01, r^2= 1.5D+00
   Bfn.  Coefficient  Atom+Function         Bfn.  Coefficient  Atom+Function  
  ----- ------------  ---------------      ----- ------------  ---------------
    54      1.019967  2 H  py                73      1.019959  3 H  py         
    31     -0.686200  1 O  dxy               12     -0.533490  1 O  py         
    34     -0.531156  1 O  dyz               16      0.359342  1 O  py         
    57     -0.324746  2 H  py                76     -0.324746  3 H  py         
    25      0.109123  1 O  dxy               28      0.084467  1 O  dyz        
 
 Vector   34  Occ=0.000000D+00  E= 1.875140D+00
              MO Center=  3.9D-01, -4.8D-13,  3.0D-01, r^2= 2.2D+00
   Bfn.  Coefficient  Atom+Function         Bfn.  Coefficient  Atom+Function  
  ----- ------------  ---------------      ----- ------------  ---------------
    47      5.992099  2 H  s                 66     -5.991749  3 H  s          
    13     -3.536284  1 O  pz                11      2.737106  1 O  px         
    58     -2.573054  2 H  pz                75      2.357143  3 H  px         
    48      2.234847  2 H  s                 67     -2.234763  3 H  s          
    77     -1.161135  3 H  pz                46     -1.051564  2 H  s          
 
 Vector   35  Occ=0.000000D+00  E= 1.921753D+00
              MO Center=  3.8D-01,  1.1D-13,  2.9D-01, r^2= 1.9D+00
   Bfn.  Coefficient  Atom+Function         Bfn.  Coefficient  Atom+Function  
  ----- ------------  ---------------      ----- ------------  ---------------
    47      1.584496  2 H  s                 66     -1.584436  3 H  s          
    53      0.821322  2 H  px                56     -0.801681  2 H  px         
    74     -0.776940  3 H  pz                46     -0.742075  2 H  s          
    65      0.742068  3 H  s                 77      0.706709  3 H  pz         
    17     -0.593013  1 O  pz                49      0.590830  2 H  s          
 
 Vector   36  Occ=0.000000D+00  E= 2.074927D+00
              MO Center=  2.4D-01,  3.7D-13,  1.9D-01, r^2= 1.5D+00
   Bfn.  Coefficient  Atom+Function         Bfn.  Coefficient  Atom+Function  
  ----- ------------  ---------------      ----- ------------  ---------------
    32      2.416109  1 O  dxz               53     -1.231807  2 H  px         
    74     -1.183895  3 H  pz                11      1.093885  1 O  px         
    13      0.846714  1 O  pz                30      0.813720  1 O  dxx        
    48     -0.519710  2 H  s                 67     -0.519714  3 H  s          
    14      0.430379  1 O  s                 72     -0.341906  3 H  px         
 
 Vector   37  Occ=0.000000D+00  E= 2.570418D+00
              MO Center= -9.4D-02,  1.3D-12, -7.3D-02, r^2= 1.6D+00
   Bfn.  Coefficient  Atom+Function         Bfn.  Coefficient  Atom+Function  
  ----- ------------  ---------------      ----- ------------  ---------------
    10     12.422060  1 O  s                 33     -3.793676  1 O  dyy        
     6     -2.689386  1 O  s                 47     -2.545794  2 H  s          
    66     -2.545843  3 H  s                 30     -2.162971  1 O  dxx        
    35     -2.100324  1 O  dzz               14      1.900311  1 O  s          
    11      1.798468  1 O  px                55      1.686504  2 H  pz         
 
 Vector   38  Occ=0.000000D+00  E= 2.748071D+00
              MO Center=  4.0D-01,  1.2D-12,  3.1D-01, r^2= 1.7D+00
   Bfn.  Coefficient  Atom+Function         Bfn.  Coefficient  Atom+Function  
  ----- ------------  ---------------      ----- ------------  ---------------
    47      8.675484  2 H  s                 66     -8.675578  3 H  s          
    13     -6.071325  1 O  pz                11      4.699513  1 O  px         
    30      2.445822  1 O  dxx               35     -2.445725  1 O  dzz        
    58     -2.072160  2 H  pz                75      2.000176  3 H  px         
    48      1.816936  2 H  s                 67     -1.816958  3 H  s          
 
 Vector   39  Occ=0.000000D+00  E= 2.808294D+00
              MO Center=  2.6D-01,  2.9D-13,  2.0D-01, r^2= 1.3D+00
   Bfn.  Coefficient  Atom+Function         Bfn.  Coefficient  Atom+Function  
  ----- ------------  ---------------      ----- ------------  ---------------
    47      2.975822  2 H  s                 66      2.975649  3 H  s          
    30     -2.358101  1 O  dxx               11     -2.202162  1 O  px         
    35     -2.156586  1 O  dzz               13     -1.704664  1 O  pz         
    14     -1.655751  1 O  s                 48      1.531504  2 H  s          
    67      1.531458  3 H  s                  6     -1.302309  1 O  s          
 
 Vector   40  Occ=0.000000D+00  E= 2.906743D+00
              MO Center=  2.7D-01, -1.9D-12,  2.1D-01, r^2= 1.1D+00
   Bfn.  Coefficient  Atom+Function         Bfn.  Coefficient  Atom+Function  
  ----- ------------  ---------------      ----- ------------  ---------------
    60      1.166454  2 H  dxy               82      1.157282  3 H  dyz        
    31     -0.869379  1 O  dxy               34     -0.672935  1 O  dyz        
    40      0.485321  1 O  fxyz              12     -0.355283  1 O  py         
    25      0.280385  1 O  dxy               57      0.226619  2 H  py         
    76      0.226619  3 H  py                28      0.217028  1 O  dyz        
 
 Vector   41  Occ=0.000000D+00  E= 2.993429D+00
              MO Center=  2.5D-01,  2.3D-12,  1.9D-01, r^2= 1.8D+00
   Bfn.  Coefficient  Atom+Function         Bfn.  Coefficient  Atom+Function  
  ----- ------------  ---------------      ----- ------------  ---------------
    47      7.370145  2 H  s                 66      7.369978  3 H  s          
    35     -4.154808  1 O  dzz               11     -3.950312  1 O  px         
    30     -3.957534  1 O  dxx               13     -3.057800  1 O  pz         
     6     -2.451075  1 O  s                 10     -2.417267  1 O  s          
    33     -2.275783  1 O  dyy               58     -1.983352  2 H  pz         
 
 Vector   42  Occ=0.000000D+00  E= 3.047821D+00
              MO Center=  1.5D-01, -6.4D-13,  1.2D-01, r^2= 1.2D+00
   Bfn.  Coefficient  Atom+Function         Bfn.  Coefficient  Atom+Function  
  ----- ------------  ---------------      ----- ------------  ---------------
    34      1.234495  1 O  dyz               79     -0.973827  3 H  dxy        
    31     -0.955556  1 O  dxy               63      0.947119  2 H  dyz        
    28     -0.826790  1 O  dyz               25      0.639977  1 O  dxy        
    57     -0.526902  2 H  py                76      0.526905  3 H  py         
    60      0.227150  2 H  dxy               37     -0.175300  1 O  fxxy       
 
 Vector   43  Occ=0.000000D+00  E= 3.142762D+00
              MO Center=  2.2D-01, -2.3D-13,  1.7D-01, r^2= 1.2D+00
   Bfn.  Coefficient  Atom+Function         Bfn.  Coefficient  Atom+Function  
  ----- ------------  ---------------      ----- ------------  ---------------
    32      1.584638  1 O  dxz               10      1.569358  1 O  s          
    35     -1.442412  1 O  dzz               30     -1.032081  1 O  dxx        
     6     -0.852413  1 O  s                 47      0.749198  2 H  s          
    66      0.749178  3 H  s                 33     -0.717834  1 O  dyy        
    26     -0.659695  1 O  dxz               80      0.648912  3 H  dxz        
 
 Vector   44  Occ=0.000000D+00  E= 3.160033D+00
              MO Center=  1.5D-01, -1.4D-12,  1.2D-01, r^2= 1.1D+00
   Bfn.  Coefficient  Atom+Function         Bfn.  Coefficient  Atom+Function  
  ----- ------------  ---------------      ----- ------------  ---------------
    79     -0.968927  3 H  dxy               31     -0.951612  1 O  dxy        
    63     -0.944188  2 H  dyz               25      0.907787  1 O  dxy        
    34     -0.736595  1 O  dyz               28      0.702670  1 O  dyz        
    12     -0.646797  1 O  py                57      0.524679  2 H  py         
    76      0.524674  3 H  py                16     -0.283246  1 O  py         
 
 Vector   45  Occ=0.000000D+00  E= 3.183014D+00
              MO Center=  2.8D-01, -4.1D-13,  2.2D-01, r^2= 1.3D+00
   Bfn.  Coefficient  Atom+Function         Bfn.  Coefficient  Atom+Function  
  ----- ------------  ---------------      ----- ------------  ---------------
    47      3.397307  2 H  s                 66     -3.397304  3 H  s          
    13     -2.390020  1 O  pz                11      1.849975  1 O  px         
    30      1.415774  1 O  dxx               35     -1.415760  1 O  dzz        
    48      1.322236  2 H  s                 67     -1.322242  3 H  s          
    58     -1.021068  2 H  pz                75      0.959306  3 H  px         
 
 Vector   46  Occ=0.000000D+00  E= 3.282344D+00
              MO Center=  3.6D-01, -1.2D-12,  2.8D-01, r^2= 1.1D+00
   Bfn.  Coefficient  Atom+Function         Bfn.  Coefficient  Atom+Function  
  ----- ------------  ---------------      ----- ------------  ---------------
    82     -1.300989  3 H  dyz               60      1.280972  2 H  dxy        
    34      0.440255  1 O  dyz               31     -0.340775  1 O  dxy        
    63     -0.243008  2 H  dyz               54     -0.122809  2 H  py         
    73      0.122808  3 H  py                79     -0.085848  3 H  dxy        
 
 Vector   47  Occ=0.000000D+00  E= 3.578977D+00
              MO Center= -9.0D-02,  1.4D-12, -7.0D-02, r^2= 9.1D-01
   Bfn.  Coefficient  Atom+Function         Bfn.  Coefficient  Atom+Function  
  ----- ------------  ---------------      ----- ------------  ---------------
    14      2.369690  1 O  s                 48     -1.709277  2 H  s          
    67     -1.709271  3 H  s                 35      1.588280  1 O  dzz        
    30      1.561215  1 O  dxx               47     -1.545720  2 H  s          
    66     -1.545699  3 H  s                 27      1.362017  1 O  dyy        
    10     -1.258914  1 O  s                  6      1.196406  1 O  s          
 
 Vector   48  Occ=0.000000D+00  E= 3.626296D+00
              MO Center=  8.3D-02,  1.9D-13,  6.4D-02, r^2= 1.2D+00
   Bfn.  Coefficient  Atom+Function         Bfn.  Coefficient  Atom+Function  
  ----- ------------  ---------------      ----- ------------  ---------------
    13      1.136599  1 O  pz                11     -0.879779  1 O  px         
    62     -0.837105  2 H  dyy               81      0.837099  3 H  dyy        
    24     -0.408856  1 O  dxx               29      0.408852  1 O  dzz        
    45     -0.408415  1 O  fzzz              36      0.369321  1 O  fxxx       
    80      0.366756  3 H  dxz               64      0.347698  2 H  dzz        
 
 Vector   49  Occ=0.000000D+00  E= 3.938436D+00
              MO Center=  3.1D-01, -3.5D-14,  2.4D-01, r^2= 1.2D+00
   Bfn.  Coefficient  Atom+Function         Bfn.  Coefficient  Atom+Function  
  ----- ------------  ---------------      ----- ------------  ---------------
    13      2.229336  1 O  pz                47     -2.067725  2 H  s          
    66      2.067719  3 H  s                 11     -1.725598  1 O  px         
    48     -1.523884  2 H  s                 67      1.523872  3 H  s          
    61     -1.270143  2 H  dxz               78      1.039381  3 H  dxx        
    75     -0.902761  3 H  px                72     -0.890871  3 H  px         
 
 Vector   50  Occ=0.000000D+00  E= 4.003776D+00
              MO Center=  1.9D-02,  1.0D-13,  1.5D-02, r^2= 8.8D-01
   Bfn.  Coefficient  Atom+Function         Bfn.  Coefficient  Atom+Function  
  ----- ------------  ---------------      ----- ------------  ---------------
    25      1.208708  1 O  dxy               63      1.041230  2 H  dyz        
    79      0.969938  3 H  dxy               28      0.935580  1 O  dyz        
    12      0.709070  1 O  py                37     -0.447827  1 O  fxxy       
    44     -0.438858  1 O  fyzz              82     -0.407980  3 H  dyz        
     4      0.376931  1 O  py                 8      0.277066  1 O  py         
 
 Vector   51  Occ=0.000000D+00  E= 4.138176D+00
              MO Center=  2.3D-01, -9.8D-13,  1.8D-01, r^2= 1.5D+00
   Bfn.  Coefficient  Atom+Function         Bfn.  Coefficient  Atom+Function  
  ----- ------------  ---------------      ----- ------------  ---------------
    47      2.393276  2 H  s                 66      2.393261  3 H  s          
    64     -1.510371  2 H  dzz               78     -1.375219  3 H  dxx        
    48     -1.352145  2 H  s                 67     -1.352162  3 H  s          
    10      1.284785  1 O  s                 14      1.223882  1 O  s          
    62     -1.022523  2 H  dyy               81     -1.022527  3 H  dyy        
 
 Vector   52  Occ=0.000000D+00  E= 4.275755D+00
              MO Center=  5.9D-02,  9.5D-13,  4.5D-02, r^2= 8.7D-01
   Bfn.  Coefficient  Atom+Function         Bfn.  Coefficient  Atom+Function  
  ----- ------------  ---------------      ----- ------------  ---------------
    28      1.407784  1 O  dyz               79     -1.123403  3 H  dxy        
    63      1.108864  2 H  dyz               25     -1.089674  1 O  dxy        
    37      0.409964  1 O  fxxy              44     -0.409971  1 O  fyzz       
    54     -0.221433  2 H  py                73      0.221428  3 H  py         
    40     -0.212312  1 O  fxyz              60      0.199288  2 H  dxy        
 
 Vector   53  Occ=0.000000D+00  E= 4.281931D+00
              MO Center=  2.8D-01, -2.9D-14,  2.2D-01, r^2= 1.2D+00
   Bfn.  Coefficient  Atom+Function         Bfn.  Coefficient  Atom+Function  
  ----- ------------  ---------------      ----- ------------  ---------------
    47      3.652819  2 H  s                 66      3.652912  3 H  s          
    10     -3.221528  1 O  s                 11     -1.488919  1 O  px         
    14     -1.431285  1 O  s                 80     -1.238028  3 H  dxz        
    13     -1.152457  1 O  pz                55     -1.144389  2 H  pz         
     6     -1.124206  1 O  s                 72     -1.060489  3 H  px         
 
 Vector   54  Occ=0.000000D+00  E= 4.320226D+00
              MO Center=  3.2D-01, -1.4D-12,  2.5D-01, r^2= 1.5D+00
   Bfn.  Coefficient  Atom+Function         Bfn.  Coefficient  Atom+Function  
  ----- ------------  ---------------      ----- ------------  ---------------
    47      4.307670  2 H  s                 66     -4.307564  3 H  s          
    13     -1.232492  1 O  pz                59     -1.210015  2 H  dxx        
    83      1.190737  3 H  dzz               62     -1.175303  2 H  dyy        
    81      1.175284  3 H  dyy               11      0.953968  1 O  px         
    78      0.937903  3 H  dxx               58     -0.930446  2 H  pz         
 
 Vector   55  Occ=0.000000D+00  E= 4.783610D+00
              MO Center=  1.2D-01, -1.3D-12,  9.0D-02, r^2= 9.2D-01
   Bfn.  Coefficient  Atom+Function         Bfn.  Coefficient  Atom+Function  
  ----- ------------  ---------------      ----- ------------  ---------------
    13      1.519326  1 O  pz                47     -1.495370  2 H  s          
    66      1.495335  3 H  s                 48     -1.463471  2 H  s          
    67      1.463460  3 H  s                 55      1.205479  2 H  pz         
    64     -1.205777  2 H  dzz               11     -1.176013  1 O  px         
    72     -1.154242  3 H  px                43     -1.129050  1 O  fyyz       
 
 Vector   56  Occ=0.000000D+00  E= 4.819734D+00
              MO Center= -3.2D-02, -9.0D-13, -2.5D-02, r^2= 5.6D-01
   Bfn.  Coefficient  Atom+Function         Bfn.  Coefficient  Atom+Function  
  ----- ------------  ---------------      ----- ------------  ---------------
    42      1.396587  1 O  fyyy              12     -0.636342  1 O  py         
     4     -0.607715  1 O  py                63      0.457674  2 H  dyz        
    37      0.455094  1 O  fxxy              79      0.433328  3 H  dxy        
    44      0.403706  1 O  fyzz              25      0.399247  1 O  dxy        
     8     -0.357283  1 O  py                28      0.309040  1 O  dyz        
 
 Vector   57  Occ=0.000000D+00  E= 4.909855D+00
              MO Center=  6.7D-02, -2.2D-12,  5.2D-02, r^2= 8.0D-01
   Bfn.  Coefficient  Atom+Function         Bfn.  Coefficient  Atom+Function  
  ----- ------------  ---------------      ----- ------------  ---------------
    10      2.970873  1 O  s                 26     -1.679449  1 O  dxz        
    39     -1.201587  1 O  fxyy              78     -1.061254  3 H  dxx        
    72      1.047733  3 H  px                55      0.999576  2 H  pz         
    61     -0.948824  2 H  dxz               43     -0.930080  1 O  fyyz       
    64     -0.877402  2 H  dzz               14      0.851372  1 O  s          
 
 Vector   58  Occ=0.000000D+00  E= 5.531209D+00
              MO Center= -4.1D-02, -1.3D-12, -3.1D-02, r^2= 6.0D-01
   Bfn.  Coefficient  Atom+Function         Bfn.  Coefficient  Atom+Function  
  ----- ------------  ---------------      ----- ------------  ---------------
    40      3.789862  1 O  fxyz              37      0.992458  1 O  fxxy       
    82     -0.625885  3 H  dyz               60     -0.616266  2 H  dxy        
    31      0.309200  1 O  dxy               34      0.239332  1 O  dyz        
    42     -0.230170  1 O  fyyy              12      0.118421  1 O  py         
    63      0.116877  2 H  dyz               25      0.086147  1 O  dxy        
 
 Vector   59  Occ=0.000000D+00  E= 5.787566D+00
              MO Center=  2.4D-02, -1.1D-12,  1.8D-02, r^2= 7.9D-01
   Bfn.  Coefficient  Atom+Function         Bfn.  Coefficient  Atom+Function  
  ----- ------------  ---------------      ----- ------------  ---------------
    47      2.127520  2 H  s                 66      2.127842  3 H  s          
    39      1.844029  1 O  fxyy              30     -1.652794  1 O  dxx        
    35     -1.517097  1 O  dzz               11     -1.500411  1 O  px         
    43      1.427200  1 O  fyyz              78     -1.391502  3 H  dxx        
    64     -1.318934  2 H  dzz               13     -1.161180  1 O  pz         
 
 Vector   60  Occ=0.000000D+00  E= 5.825624D+00
              MO Center=  1.5D-02, -1.4D-12,  1.2D-02, r^2= 7.4D-01
   Bfn.  Coefficient  Atom+Function         Bfn.  Coefficient  Atom+Function  
  ----- ------------  ---------------      ----- ------------  ---------------
    47      3.178487  2 H  s                 66     -3.178290  3 H  s          
    13     -2.453186  1 O  pz                43      1.933312  1 O  fyyz       
    11      1.898755  1 O  px                39     -1.496317  1 O  fxyy       
    48      1.090379  2 H  s                 67     -1.090297  3 H  s          
    30      1.049427  1 O  dxx               35     -1.049580  1 O  dzz        
 
 Vector   61  Occ=0.000000D+00  E= 6.196282D+00
              MO Center=  7.1D-02, -2.6D-13,  5.5D-02, r^2= 7.5D-01
   Bfn.  Coefficient  Atom+Function         Bfn.  Coefficient  Atom+Function  
  ----- ------------  ---------------      ----- ------------  ---------------
    38      2.565625  1 O  fxxz              47      1.838555  2 H  s          
    66      1.838506  3 H  s                 41      1.450865  1 O  fxzz       
    32      1.377387  1 O  dxz               35     -0.941776  1 O  dzz        
    80      0.945774  3 H  dxz               61      0.862985  2 H  dxz        
    64     -0.810984  2 H  dzz               26      0.747527  1 O  dxz        
 
 Vector   62  Occ=0.000000D+00  E= 6.263195D+00
              MO Center=  1.6D-03, -8.0D-13,  1.2D-03, r^2= 6.9D-01
   Bfn.  Coefficient  Atom+Function         Bfn.  Coefficient  Atom+Function  
  ----- ------------  ---------------      ----- ------------  ---------------
    44      2.437349  1 O  fyzz              37      2.084299  1 O  fxxy       
    40     -1.363852  1 O  fxyz              63      1.240786  2 H  dyz        
    79      1.204011  3 H  dxy               25      0.702327  1 O  dxy        
    54     -0.704632  2 H  py                73     -0.704655  3 H  py         
    31      0.613240  1 O  dxy               12      0.587552  1 O  py         
 
 Vector   63  Occ=0.000000D+00  E= 6.336349D+00
              MO Center=  3.9D-03, -2.8D-13,  3.0D-03, r^2= 6.8D-01
   Bfn.  Coefficient  Atom+Function         Bfn.  Coefficient  Atom+Function  
  ----- ------------  ---------------      ----- ------------  ---------------
    37      2.366489  1 O  fxxy              44     -2.366590  1 O  fyzz       
    40     -1.225545  1 O  fxyz              63     -1.195770  2 H  dyz        
    79      1.158346  3 H  dxy               28     -0.863172  1 O  dyz        
    34     -0.781350  1 O  dyz               54      0.719138  2 H  py         
    73     -0.719101  3 H  py                25      0.668103  1 O  dxy        
 
 Vector   64  Occ=0.000000D+00  E= 6.559941D+00
              MO Center= -1.4D-01, -7.7D-14, -1.1D-01, r^2= 9.2D-01
   Bfn.  Coefficient  Atom+Function         Bfn.  Coefficient  Atom+Function  
  ----- ------------  ---------------      ----- ------------  ---------------
    10     13.892290  1 O  s                 33     -3.855178  1 O  dyy        
    55      3.136676  2 H  pz                72      2.984654  3 H  px         
    30     -2.953739  1 O  dxx               35     -2.952407  1 O  dzz        
    27     -2.199454  1 O  dyy               64     -2.012174  2 H  dzz        
    78     -1.847433  3 H  dxx               36      1.652806  1 O  fxxx       
 
 Vector   65  Occ=0.000000D+00  E= 6.605561D+00
              MO Center=  5.2D-02, -4.0D-13,  4.0D-02, r^2= 7.5D-01
   Bfn.  Coefficient  Atom+Function         Bfn.  Coefficient  Atom+Function  
  ----- ------------  ---------------      ----- ------------  ---------------
    47     -2.744984  2 H  s                 66      2.744942  3 H  s          
    41      2.582871  1 O  fxzz              55      1.704818  2 H  pz         
    13      1.660883  1 O  pz                72     -1.503757  3 H  px         
    80     -1.489915  3 H  dxz               11     -1.285567  1 O  px         
    36     -1.226851  1 O  fxxx              61      1.117833  2 H  dxz        
 
 Vector   66  Occ=0.000000D+00  E= 6.894932D+00
              MO Center=  7.0D-02, -5.2D-13,  5.4D-02, r^2= 8.9D-01
   Bfn.  Coefficient  Atom+Function         Bfn.  Coefficient  Atom+Function  
  ----- ------------  ---------------      ----- ------------  ---------------
    47      3.779132  2 H  s                 66     -3.779115  3 H  s          
    55     -3.629077  2 H  pz                72      3.618606  3 H  px         
    13     -2.957171  1 O  pz                64      2.358608  2 H  dzz        
    78     -2.351412  3 H  dxx               11      2.288972  1 O  px         
    41      2.126148  1 O  fxzz              38     -2.032978  1 O  fxxz       
 
 Vector   67  Occ=0.000000D+00  E= 7.428622D+00
              MO Center=  1.1D-01, -1.2D-12,  8.5D-02, r^2= 8.3D-01
   Bfn.  Coefficient  Atom+Function         Bfn.  Coefficient  Atom+Function  
  ----- ------------  ---------------      ----- ------------  ---------------
    29      4.573597  1 O  dzz               24      4.442208  1 O  dxx        
    47     -4.238343  2 H  s                 66     -4.238308  3 H  s          
     6     -3.460358  1 O  s                 27      3.218396  1 O  dyy        
    35      2.827707  1 O  dzz               30      2.769790  1 O  dxx        
    55      2.716962  2 H  pz                72      2.582010  3 H  px         
 
 Vector   68  Occ=0.000000D+00  E= 8.435910D+00
              MO Center=  3.6D-01,  5.9D-13,  2.8D-01, r^2= 8.3D-01
   Bfn.  Coefficient  Atom+Function         Bfn.  Coefficient  Atom+Function  
  ----- ------------  ---------------      ----- ------------  ---------------
    51      0.905568  2 H  py                70     -0.905566  3 H  py         
    54     -0.659894  2 H  py                73      0.659893  3 H  py         
    34      0.215050  1 O  dyz               31     -0.166458  1 O  dxy        
    57      0.166959  2 H  py                76     -0.166958  3 H  py         
    37      0.127680  1 O  fxxy              44     -0.127686  1 O  fyzz       
 
 Vector   69  Occ=0.000000D+00  E= 8.462518D+00
              MO Center=  3.6D-01,  7.3D-13,  2.8D-01, r^2= 8.4D-01
   Bfn.  Coefficient  Atom+Function         Bfn.  Coefficient  Atom+Function  
  ----- ------------  ---------------      ----- ------------  ---------------
    51      0.916846  2 H  py                70      0.916849  3 H  py         
    54     -0.756743  2 H  py                73     -0.756746  3 H  py         
    12      0.258625  1 O  py                31      0.256479  1 O  dxy        
    63      0.212652  2 H  dyz               34      0.198525  1 O  dyz        
    79      0.191295  3 H  dxy               37      0.187087  1 O  fxxy       
 
 Vector   70  Occ=0.000000D+00  E= 8.567117D+00
              MO Center=  3.5D-01, -2.6D-13,  2.7D-01, r^2= 8.6D-01
   Bfn.  Coefficient  Atom+Function         Bfn.  Coefficient  Atom+Function  
  ----- ------------  ---------------      ----- ------------  ---------------
    50      0.930795  2 H  px                53     -0.920198  2 H  px         
    71      0.910248  3 H  pz                47     -0.892749  2 H  s          
    66     -0.892757  3 H  s                 74     -0.862747  3 H  pz         
    11      0.850376  1 O  px                32      0.852743  1 O  dxz        
    13      0.658221  1 O  pz                30      0.531926  1 O  dxx        
 
 Vector   71  Occ=0.000000D+00  E= 8.672320D+00
              MO Center=  3.7D-01, -8.9D-14,  2.9D-01, r^2= 8.4D-01
   Bfn.  Coefficient  Atom+Function         Bfn.  Coefficient  Atom+Function  
  ----- ------------  ---------------      ----- ------------  ---------------
    47      0.980719  2 H  s                 66     -0.980719  3 H  s          
    50      0.908889  2 H  px                71     -0.853700  3 H  pz         
    13     -0.849122  1 O  pz                74      0.737254  3 H  pz         
    53     -0.709172  2 H  px                11      0.657256  1 O  px         
    77     -0.419049  3 H  pz                58     -0.366166  2 H  pz         
 
 Vector   72  Occ=0.000000D+00  E= 9.766083D+00
              MO Center=  3.1D-01, -5.5D-14,  2.4D-01, r^2= 7.7D-01
   Bfn.  Coefficient  Atom+Function         Bfn.  Coefficient  Atom+Function  
  ----- ------------  ---------------      ----- ------------  ---------------
    47      2.554394  2 H  s                 66     -2.554473  3 H  s          
    13     -1.668010  1 O  pz                11      1.291142  1 O  px         
    55     -1.065061  2 H  pz                72      1.022145  3 H  px         
    52      0.976334  2 H  pz                69     -0.913313  3 H  px         
    30      0.550077  1 O  dxx               35     -0.550078  1 O  dzz        
 
 Vector   73  Occ=0.000000D+00  E= 9.989886D+00
              MO Center=  2.6D-01, -9.3D-14,  2.0D-01, r^2= 7.7D-01
   Bfn.  Coefficient  Atom+Function         Bfn.  Coefficient  Atom+Function  
  ----- ------------  ---------------      ----- ------------  ---------------
    10      1.862116  1 O  s                  6      1.708699  1 O  s          
    47     -1.406689  2 H  s                 66     -1.406563  3 H  s          
    29     -1.187979  1 O  dzz               24     -1.126894  1 O  dxx        
    38      1.057379  1 O  fxxz              52     -0.941508  2 H  pz         
    69     -0.921533  3 H  px                27     -0.707699  1 O  dyy        
 
 Vector   74  Occ=0.000000D+00  E= 1.449283D+01
              MO Center= -7.9D-02, -2.2D-13, -6.1D-02, r^2= 1.8D-01
   Bfn.  Coefficient  Atom+Function         Bfn.  Coefficient  Atom+Function  
  ----- ------------  ---------------      ----- ------------  ---------------
    19      1.586459  1 O  dxy               22      1.227962  1 O  dyz        
    25     -1.030037  1 O  dxy               28     -0.797277  1 O  dyz        
    44     -0.474402  1 O  fyzz              37     -0.448796  1 O  fxxy       
     8      0.342970  1 O  py                63     -0.288498  2 H  dyz        
    79     -0.270415  3 H  dxy               31      0.202952  1 O  dxy        
 
 Vector   75  Occ=0.000000D+00  E= 1.465109D+01
              MO Center= -7.8D-02, -2.2D-13, -6.0D-02, r^2= 1.9D-01
   Bfn.  Coefficient  Atom+Function         Bfn.  Coefficient  Atom+Function  
  ----- ------------  ---------------      ----- ------------  ---------------
    22      1.598793  1 O  dyz               19     -1.237509  1 O  dxy        
    28     -1.128508  1 O  dyz               25      0.873495  1 O  dxy        
    63     -0.363484  2 H  dyz               79      0.359221  3 H  dxy        
    37      0.332054  1 O  fxxy              44     -0.332066  1 O  fyzz       
    40     -0.171964  1 O  fxyz              54      0.170103  2 H  py         
 
 Vector   76  Occ=0.000000D+00  E= 1.467551D+01
              MO Center= -6.9D-02, -1.0D-13, -5.3D-02, r^2= 2.0D-01
   Bfn.  Coefficient  Atom+Function         Bfn.  Coefficient  Atom+Function  
  ----- ------------  ---------------      ----- ------------  ---------------
    20     -1.495009  1 O  dxz               10      1.444258  1 O  s          
    26      1.028951  1 O  dxz               21      0.680448  1 O  dyy        
    18     -0.645264  1 O  dxx               27     -0.617051  1 O  dyy        
    24      0.417833  1 O  dxx               55      0.413285  2 H  pz         
    80      0.414777  3 H  dxz               72      0.349944  3 H  px         
 
 Vector   77  Occ=0.000000D+00  E= 1.537893D+01
              MO Center= -6.2D-02, -6.1D-15, -4.8D-02, r^2= 2.3D-01
   Bfn.  Coefficient  Atom+Function         Bfn.  Coefficient  Atom+Function  
  ----- ------------  ---------------      ----- ------------  ---------------
    10      3.289400  1 O  s                  7      2.277708  1 O  px         
     9      1.763022  1 O  pz                26     -1.311719  1 O  dxz        
    20      1.275065  1 O  dxz               38     -1.281327  1 O  fxxz       
    27     -1.220086  1 O  dyy               30     -1.063569  1 O  dxx        
    35     -1.047923  1 O  dzz               41     -0.988217  1 O  fxzz       
 
 Vector   78  Occ=0.000000D+00  E= 1.575208D+01
              MO Center= -6.9D-02, -1.2D-14, -5.3D-02, r^2= 2.1D-01
   Bfn.  Coefficient  Atom+Function         Bfn.  Coefficient  Atom+Function  
  ----- ------------  ---------------      ----- ------------  ---------------
     9      5.263002  1 O  pz                 7     -4.073725  1 O  px         
    43     -2.490450  1 O  fyyz              38     -2.228215  1 O  fxxz       
    45     -2.022006  1 O  fzzz              41      1.965404  1 O  fxzz       
    39      1.927687  1 O  fxyy              36      1.484864  1 O  fxxx       
     5     -1.328971  1 O  pz                24     -1.144305  1 O  dxx        
 
 Vector   79  Occ=0.000000D+00  E= 1.638944D+01
              MO Center= -9.5D-02,  6.4D-13, -7.4D-02, r^2= 3.0D-01
   Bfn.  Coefficient  Atom+Function         Bfn.  Coefficient  Atom+Function  
  ----- ------------  ---------------      ----- ------------  ---------------
     8     12.835898  1 O  py                37     -6.917826  1 O  fxxy       
    42     -6.933685  1 O  fyyy              44     -6.915177  1 O  fyzz       
     4     -3.456161  1 O  py                12     -0.784979  1 O  py         
    16      0.119226  1 O  py                57      0.080012  2 H  py         
    76      0.080012  3 H  py                25      0.048913  1 O  dxy        
 
 Vector   80  Occ=0.000000D+00  E= 1.660873D+01
              MO Center= -1.4D-01, -2.8D-13, -1.1D-01, r^2= 3.0D-01
   Bfn.  Coefficient  Atom+Function         Bfn.  Coefficient  Atom+Function  
  ----- ------------  ---------------      ----- ------------  ---------------
     7      9.866589  1 O  px                 9      7.637097  1 O  pz         
    36     -5.572875  1 O  fxxx              39     -5.401636  1 O  fxyy       
    41     -5.392541  1 O  fxzz              45     -4.383779  1 O  fzzz       
    43     -4.181063  1 O  fyyz              38     -3.963517  1 O  fxxz       
     3     -2.676829  1 O  px                 5     -2.071963  1 O  pz         
 
 Vector   81  Occ=0.000000D+00  E= 1.709195D+01
              MO Center= -5.6D-02, -3.4D-14, -4.3D-02, r^2= 3.5D-01
   Bfn.  Coefficient  Atom+Function         Bfn.  Coefficient  Atom+Function  
  ----- ------------  ---------------      ----- ------------  ---------------
     9      8.738122  1 O  pz                 7     -6.763642  1 O  px         
    45     -5.519578  1 O  fzzz              38     -5.312889  1 O  fxxz       
    43     -5.002752  1 O  fyyz              36      4.352781  1 O  fxxx       
    39      3.872319  1 O  fxyy              41      3.871115  1 O  fxzz       
     5     -2.445159  1 O  pz                 3      1.892646  1 O  px         
 
 Vector   82  Occ=0.000000D+00  E= 1.954352D+01
              MO Center= -4.6D-02, -6.3D-13, -3.6D-02, r^2= 5.0D-01
   Bfn.  Coefficient  Atom+Function         Bfn.  Coefficient  Atom+Function  
  ----- ------------  ---------------      ----- ------------  ---------------
     6     17.283390  1 O  s                 29     -7.522948  1 O  dzz        
    24     -7.419912  1 O  dxx               27     -6.713104  1 O  dyy        
     2     -3.966539  1 O  s                 21     -3.754129  1 O  dyy        
    18     -3.482083  1 O  dxx               23     -3.440753  1 O  dzz        
    10      2.919955  1 O  s                 35     -2.315811  1 O  dzz        
 
 Vector   83  Occ=0.000000D+00  E= 6.115562D+01
              MO Center= -9.3D-02, -7.9D-15, -7.2D-02, r^2= 4.3D-02
   Bfn.  Coefficient  Atom+Function         Bfn.  Coefficient  Atom+Function  
  ----- ------------  ---------------      ----- ------------  ---------------
     6      5.312968  1 O  s                  1     -2.202836  1 O  s          
     2      1.601045  1 O  s                 24     -1.566028  1 O  dxx        
    27     -1.568870  1 O  dyy               29     -1.565723  1 O  dzz        
    18     -1.210304  1 O  dxx               21     -1.211208  1 O  dyy        
    23     -1.210157  1 O  dzz               10      0.190911  1 O  s          
 

 center of mass
 --------------
 x =  -0.07709942 y =   0.00000000 z =  -0.05967806

 moments of inertia (a.u.)
 ------------------
           3.399061573302           0.000000000000           0.933492640129
           0.000000000000           6.314701954170           0.000000000000
           0.933492640129           0.000000000000           2.915640380868
 
     Multipole analysis of the density
     ---------------------------------
 
     L   x y z        total         alpha         beta         nuclear
     -   - - -        -----         -----         ----         -------
     0   0 0 0     -0.000000     -5.000000     -5.000000     10.000000
 
     1   1 0 0      0.573884      0.286942      0.286942      0.000000
     1   0 1 0     -0.000000     -0.000000     -0.000000      0.000000
     1   0 0 1      0.444210      0.222105      0.222105     -0.000000
 
     2   2 0 0     -4.243876     -3.500955     -3.500955      2.758035
     2   1 1 0     -0.000000     -0.000000     -0.000000      0.000000
     2   1 0 1     -0.709705      0.160505      0.160505     -1.030715
     2   0 2 0     -5.769815     -2.884907     -2.884907      0.000000
     2   0 1 1     -0.000000     -0.000000     -0.000000      0.000000
     2   0 0 2     -3.876340     -3.584073     -3.584073      3.291806
 

 Parallel integral file used      70 records with       0 large values


 Task  times  cpu:        2.1s     wall:        3.1s
 
 
                                NWChem Input Module
                                -------------------
 
 
 Summary of allocated global arrays
-----------------------------------
  No active global arrays



                         GA Statistics for process    0
                         ------------------------------

       create   destroy   get      put      acc     scatter   gather  read&inc
calls:  152      152      822      453      209        0        0       82     
number of processes/call 3.15e+00 1.67e+00 4.53e+00 0.00e+00 0.00e+00
bytes total:             1.22e+07 2.25e+06 5.15e+06 0.00e+00 0.00e+00 6.56e+02
bytes remote:            6.95e+06 7.26e+05 3.40e+06 0.00e+00 0.00e+00 0.00e+00
Max memory consumed for GA by this process: 644824 bytes
 
MA_summarize_allocated_blocks: starting scan ...
MA_summarize_allocated_blocks: scan completed: 0 heap blocks, 0 stack blocks
MA usage statistics:

	allocation statistics:
					      heap	     stack
					      ----	     -----
	current number of blocks	         0	         0
	maximum number of blocks	        21	        53
	current total bytes		         0	         0
	maximum total bytes		   7133232	  23477560
	maximum total K-bytes		      7134	     23478
	maximum total M-bytes		         8	        24
 
 
                                     CITATION
                                     --------
                Please cite the following reference when publishing
                           results obtained with NWChem:
 
                 M. Valiev, E.J. Bylaska, N. Govind, K. Kowalski,
              T.P. Straatsma, H.J.J. van Dam, D. Wang, J. Nieplocha,
                        E. Apra, T.L. Windus, W.A. de Jong
                 "NWChem: a comprehensive and scalable open-source
                  solution for large scale molecular simulations"
                      Comput. Phys. Commun. 181, 1477 (2010)
                           doi:10.1016/j.cpc.2010.04.018
 
                                      AUTHORS
                                      -------
          E. Apra, E. J. Bylaska, W. A. de Jong, N. Govind, K. Kowalski,
       T. P. Straatsma, M. Valiev, H. J. J. van Dam, D. Wang, T. L. Windus,
        J. Hammond, J. Autschbach, K. Bhaskaran-Nair, J. Brabec, K. Lopata,
    S. A. Fischer, S. Krishnamoorthy, M. Jacquelin, W. Ma, M. Klemm, O. Villa,
      Y. Chen, V. Anisimov, F. Aquino, S. Hirata, M. T. Hackler, V. Konjkov,
            D. Mejia-Rodriguez, T. Risthaus, M. Malagoli, A. Marenich,
   A. Otero-de-la-Roza, J. Mullin, P. Nichols, R. Peverati, J. Pittner, Y. Zhao,
        P.-D. Fan, A. Fonari, M. J. Williamson, R. J. Harrison, J. R. Rehr,
      M. Dupuis, D. Silverstein, D. M. A. Smith, J. Nieplocha, V. Tipparaju,
    M. Krishnan, B. E. Van Kuiken, A. Vazquez-Mayagoitia, L. Jensen, M. Swart,
      Q. Wu, T. Van Voorhis, A. A. Auer, M. Nooijen, L. D. Crosby, E. Brown,
      G. Cisneros, G. I. Fann, H. Fruchtl, J. Garza, K. Hirao, R. A. Kendall,
      J. A. Nichols, K. Tsemekhman, K. Wolinski, J. Anchell, D. E. Bernholdt,
      P. Borowski, T. Clark, D. Clerc, H. Dachsel, M. J. O. Deegan, K. Dyall,
    D. Elwood, E. Glendening, M. Gutowski, A. C. Hess, J. Jaffe, B. G. Johnson,
     J. Ju, R. Kobayashi, R. Kutteh, Z. Lin, R. Littlefield, X. Long, B. Meng,
      T. Nakajima, S. Niu, L. Pollack, M. Rosing, K. Glaesemann, G. Sandrone,
      M. Stave, H. Taylor, G. Thomas, J. H. van Lenthe, A. T. Wong, Z. Zhang.

 Total times  cpu:        2.1s     wall:        3.4s
