 argument  1 = /storage/home/rabeet/work/nwc/bh6/nwtpss/HS.nw
  NWChem w/ OpenMP: maximum threads =  1
                                         
                                         
 
 
              Northwest Computational Chemistry Package (NWChem) 6.8
              ------------------------------------------------------
 
 
                    Environmental Molecular Sciences Laboratory
                       Pacific Northwest National Laboratory
                                Richland, WA 99352
 
                              Copyright (c) 1994-2018
                       Pacific Northwest National Laboratory
                            Battelle Memorial Institute
 
             NWChem is an open-source computational chemistry package
                        distributed under the terms of the
                      Educational Community License (ECL) 2.0
             A copy of the license is included with this distribution
                              in the LICENSE.TXT file
 
                                  ACKNOWLEDGMENT
                                  --------------

            This software and its documentation were developed at the
            EMSL at Pacific Northwest National Laboratory, a multiprogram
            national laboratory, operated for the U.S. Department of Energy
            by Battelle under Contract Number DE-AC05-76RL01830. Support
            for this work was provided by the Department of Energy Office
            of Biological and Environmental Research, Office of Basic
            Energy Sciences, and the Office of Advanced Scientific Computing.


           Job information
           ---------------

    hostname        = r8n4.niserhpc.org
    program         = /home/rabeet/nwchem-6.8/bin/LINUX64/nwchem
    date            = Sun Oct 27 08:44:12 2019

    compiled        = Fri_Jun_28_18:24:12_2019
    source          = /home/rabeet/nwchem-6.8
    nwchem branch   = Development
    nwchem revision = N/A
    ga revision     = 5.6.5
    use scalapack   = T
    input           = /storage/home/rabeet/work/nwc/bh6/nwtpss/HS.nw
    prefix          = HS.
    data base       = ./HS.db
    status          = startup
    nproc           =       16
    time left       =     -1s



           Memory information
           ------------------

    heap     =   13107198 doubles =    100.0 Mbytes
    stack    =   13107195 doubles =    100.0 Mbytes
    global   =   26214400 doubles =    200.0 Mbytes (distinct from heap & stack)
    total    =   52428793 doubles =    400.0 Mbytes
    verify   = yes
    hardfail = no 


           Directory information
           ---------------------
 
  0 permanent = .
  0 scratch   = .
 
 
 
 
                                NWChem Input Module
                                -------------------
 
 

 Scaling coordinates for geometry "geometry" by  1.889725989
 (inverse scale =  0.529177249)


          ------
          auto-z
          ------
  no constraints, skipping   0.000000000000000E+000
  no constraints, skipping   0.000000000000000E+000
 
 
                             Geometry "geometry" -> ""
                             -------------------------
 
 Output coordinates in angstroms (scale by  1.889725989 to convert to a.u.)
 
  No.       Tag          Charge          X              Y              Z
 ---- ---------------- ---------- -------------- -------------- --------------
    1 S                   16.0000     0.00000000     0.00000000    -0.07883529
    2 H                    1.0000     0.00000000     0.00000000     1.26136471
 
      Atomic Mass 
      ----------- 
 
      S                 31.972070
      H                  1.007825
 

 Effective nuclear repulsion energy (a.u.)       6.3175913923

            Nuclear Dipole moment (a.u.) 
            ----------------------------
        X                 Y               Z
 ---------------- ---------------- ----------------
     0.0000000000     0.0000000000     0.0000000000
 


                                Z-matrix (autoz)
                                -------- 

 Units are Angstrom for bonds and degrees for angles
 
      Type          Name      I     J     K     L     M      Value
      ----------- --------  ----- ----- ----- ----- ----- ----------
    1 Stretch                  1     2                       1.34020
 
 
            XYZ format geometry
            -------------------
     2
 geometry
 S                     0.00000000     0.00000000    -0.07883529
 H                     0.00000000     0.00000000     1.26136471
 
 ==============================================================================
                                internuclear distances
 ------------------------------------------------------------------------------
       center one      |      center two      | atomic units |  angstroms
 ------------------------------------------------------------------------------
    2 H                |   1 S                |     2.53261  |     1.34020
 ------------------------------------------------------------------------------
                         number of included internuclear distances:          1
 ==============================================================================





 Summary of "ao basis" -> "" (cartesian)
 ------------------------------------------------------------------------------
       Tag                 Description            Shells   Functions and Types
 ---------------- ------------------------------  ------  ---------------------
 *                     6-311++G(3df,3pd)              on all atoms 


 
                                 NWChem DFT Module
                                 -----------------
 
 
                      Basis "ao basis" -> "ao basis" (cartesian)
                      -----
  S (Sulphur)
  -----------
            Exponent  Coefficients 
       -------------- ---------------------------------------------------------
  1 S  9.34134000E+04  0.000743
  1 S  1.39617000E+04  0.005793
  1 S  3.16991000E+03  0.029954
  1 S  9.02456000E+02  0.119028
  1 S  2.97158000E+02  0.368432
  1 S  1.08702000E+02  0.577299
 
  2 S  1.08702000E+02  0.143186
  2 S  4.31553000E+01  0.624465
  2 S  1.81079000E+01  0.283366
 
  3 S  5.56009000E+00  1.000000
 
  4 S  2.13183000E+00  1.000000
 
  5 S  4.20403000E-01  1.000000
 
  6 S  1.36045000E-01  1.000000
 
  7 P  4.95040000E+02  0.008309
  7 P  1.17221000E+02  0.064024
  7 P  3.77749000E+01  0.277614
  7 P  1.40584000E+01  0.745076
 
  8 P  5.56574000E+00  0.613712
  8 P  2.26297000E+00  0.443818
 
  9 P  8.07994000E-01  1.000000
 
 10 P  2.77460000E-01  1.000000
 
 11 P  7.71410000E-02  1.000000
 
 12 S  4.05000000E-02  1.000000
 
 13 P  4.05000000E-02  1.000000
 
 14 D  2.60000000E+00  1.000000
 
 15 D  6.50000000E-01  1.000000
 
 16 D  1.62500000E-01  1.000000
 
 17 F  5.50000000E-01  1.000000
 
  H (Hydrogen)
  ------------
            Exponent  Coefficients 
       -------------- ---------------------------------------------------------
  1 S  3.38650000E+01  0.025494
  1 S  5.09479000E+00  0.190373
  1 S  1.15879000E+00  0.852161
 
  2 S  3.25840000E-01  1.000000
 
  3 S  1.02741000E-01  1.000000
 
  4 S  3.60000000E-02  1.000000
 
  5 P  3.00000000E+00  1.000000
 
  6 P  7.50000000E-01  1.000000
 
  7 P  1.87500000E-01  1.000000
 
  8 D  1.00000000E+00  1.000000
 


 Summary of "ao basis" -> "ao basis" (cartesian)
 ------------------------------------------------------------------------------
       Tag                 Description            Shells   Functions and Types
 ---------------- ------------------------------  ------  ---------------------
 S                     6-311++G(3df,3pd)            17       53   7s6p3d1f
 H                     6-311++G(3df,3pd)             8       19   4s3p1d




 Summary of "ao basis" -> "ao basis" (cartesian)
 ------------------------------------------------------------------------------
       Tag                 Description            Shells   Functions and Types
 ---------------- ------------------------------  ------  ---------------------
 S                     6-311++G(3df,3pd)            17       53   7s6p3d1f
 H                     6-311++G(3df,3pd)             8       19   4s3p1d


  Caching 1-el integrals 
 
            General Information
            -------------------
          SCF calculation type: DFT
          Wavefunction type:  spin polarized.
          No. of atoms     :     2
          No. of electrons :    17
           Alpha electrons :     9
            Beta electrons :     8
          Charge           :     0
          Spin multiplicity:     2
          Use of symmetry is: off; symmetry adaption is: off
          Maximum number of iterations: ***
          AO basis - number of functions:    72
                     number of shells:    25
          Convergence on energy requested:  1.00D-06
          Convergence on density requested:  1.00D-05
          Convergence on gradient requested:  5.00D-04
 
              XC Information
              --------------
                  TPSS metaGGA Exchange Functional  1.000          
             TPSS03 metaGGA Correlation Functional  1.000          
 
             Grid Information
             ----------------
          Grid used for XC integration:  medium    
          Radial quadrature: Mura-Knowles        
          Angular quadrature: Lebedev. 
          Tag              B.-S. Rad. Rad. Pts. Rad. Cut. Ang. Pts.
          ---              ---------- --------- --------- ---------
          S                   1.00       88          11.0       590
          H                   0.35       45          11.0       434
          Grid pruning is: on 
          Number of quadrature shells:   133
          Spatial weights used:  Erf1
 
          Convergence Information
          -----------------------
          Convergence aids based upon iterative change in 
          total energy or number of iterations. 
          Levelshifting, if invoked, occurs when the 
          HOMO/LUMO gap drops below (HL_TOL):  1.00D-02
          DIIS, if invoked, will attempt to extrapolate 
          using up to (NFOCK): 10 stored Fock matrices.

                    Damping( 0%)  Levelshifting(0.5)       DIIS
                  --------------- ------------------- ---------------
          dE  on:    start            ASAP                start   
          dE off:    2 iters        *** iters           *** iters 

 
      Screening Tolerance Information
      -------------------------------
          Density screening/tol_rho:  1.00D-10
          AO Gaussian exp screening on grid/accAOfunc:  14
          CD Gaussian exp screening on grid/accCDfunc:  20
          XC Gaussian exp screening on grid/accXCfunc:  20
          Schwarz screening/accCoul:  1.00D-08

 
      Superposition of Atomic Density Guess
      -------------------------------------
 
 Sum of atomic energies:        -397.98006917
 
      Non-variational initial energy
      ------------------------------

 Total energy =    -397.907128
 1-e energy   =    -562.221787
 2-e energy   =     157.997068
 HOMO         =      -0.304560
 LUMO         =       0.037500
 
   Time after variat. SCF:      0.5
   Time prior to 1st pass:      0.5

 Integral file          = ./HS.aoints.00
 Record size in doubles =    65536    No. of integs per rec  =    43688
 Max. records in memory =        8    Max. records in file   =  8903676
 No. of bits per label  =        8    No. of bits per value  =       64


 #quartets = 5.240D+04 #integrals = 8.456D+05 #direct =  0.0% #cached =100.0%


File balance: exchanges=     0  moved=     0  time=   0.0


 Grid_pts file          = ./HS.gridpts.00
 Record size in doubles =  12289        No. of grid_pts per rec  =   3070
 Max. records in memory =      3        Max. recs in file   =    295606


           Memory utilization after 1st SCF pass: 
           Heap Space remaining (MW):       12.54            12542726
          Stack Space remaining (MW):       13.11            13106484

   convergence    iter        energy       DeltaE   RMS-Dens  Diis-err    time
 ---------------- ----- ----------------- --------- --------- ---------  ------
 d= 0,ls=0.0,diis     1   -398.7620020850 -4.05D+02  3.70D-03  1.60D-01     1.5
                                                     2.60D-03  1.43D-01
 d= 0,ls=0.0,diis     2   -398.7755592468 -1.36D-02  2.07D-03  9.61D-03     1.6
                                                     1.93D-03  8.54D-03
 d= 0,ls=0.0,diis     3   -398.7770259087 -1.47D-03  9.72D-04  8.05D-03     1.7
                                                     8.32D-04  6.64D-03
 d= 0,ls=0.0,diis     4   -398.7813029660 -4.28D-03  1.45D-04  1.07D-04     1.9
                                                     1.28D-04  8.64D-05
 d= 0,ls=0.0,diis     5   -398.7813494388 -4.65D-05  2.75D-05  9.07D-06     2.0
                                                     2.90D-05  9.58D-06
  Resetting Diis
 d= 0,ls=0.0,diis     6   -398.7813532625 -3.82D-06  6.87D-06  1.31D-07     2.1
                                                     8.41D-06  1.38D-07
 d= 0,ls=0.0,diis     7   -398.7813533838 -1.21D-07  1.32D-06  2.52D-09     2.3
                                                     1.05D-06  2.36D-09


         Total DFT energy =     -398.781353383840
      One electron energy =     -562.853680935239
           Coulomb energy =      183.792075003526
          Exchange energy =      -25.407879710072
       Correlation energy =       -0.629459134381
 Nuclear repulsion energy =        6.317591392326

 Numeric. integr. density =       17.000003018380

     Total iterative time =      1.8s


 
                    DFT Final Alpha Molecular Orbital Analysis
                    ------------------------------------------
 
 Vector    1  Occ=1.000000D+00  E=-8.838402D+01
              MO Center= -2.5D-18, -4.2D-18, -7.9D-02, r^2= 3.6D-03
   Bfn.  Coefficient  Atom+Function         Bfn.  Coefficient  Atom+Function  
  ----- ------------  ---------------      ----- ------------  ---------------
     2      0.653576  1 S  s                  1      0.411422  1 S  s          
 
 Vector    2  Occ=1.000000D+00  E=-7.769681D+00
              MO Center=  1.5D-16,  3.9D-16, -7.7D-02, r^2= 7.7D-02
   Bfn.  Coefficient  Atom+Function         Bfn.  Coefficient  Atom+Function  
  ----- ------------  ---------------      ----- ------------  ---------------
     4      0.588195  1 S  s                  3      0.512758  1 S  s          
     2     -0.320473  1 S  s                  5      0.125810  1 S  s          
     1     -0.119429  1 S  s                  6     -0.048242  1 S  s          
 
 Vector    3  Occ=1.000000D+00  E=-5.756716D+00
              MO Center= -1.2D-15,  1.1D-15, -7.9D-02, r^2= 6.9D-02
   Bfn.  Coefficient  Atom+Function         Bfn.  Coefficient  Atom+Function  
  ----- ------------  ---------------      ----- ------------  ---------------
    10      0.536104  1 S  px                11     -0.460170  1 S  py         
     7      0.286566  1 S  px                 8     -0.245977  1 S  py         
    13      0.044110  1 S  px                14     -0.037862  1 S  py         
 
 Vector    4  Occ=1.000000D+00  E=-5.747040D+00
              MO Center=  1.3D-15, -1.0D-15, -8.0D-02, r^2= 6.9D-02
   Bfn.  Coefficient  Atom+Function         Bfn.  Coefficient  Atom+Function  
  ----- ------------  ---------------      ----- ------------  ---------------
    12      0.706830  1 S  pz                 9      0.377574  1 S  pz         
    15      0.056980  1 S  pz         
 
 Vector    5  Occ=1.000000D+00  E=-5.737783D+00
              MO Center= -2.6D-16, -4.2D-16, -7.9D-02, r^2= 6.9D-02
   Bfn.  Coefficient  Atom+Function         Bfn.  Coefficient  Atom+Function  
  ----- ------------  ---------------      ----- ------------  ---------------
    11      0.536500  1 S  py                10      0.460510  1 S  px         
     8      0.286789  1 S  py                 7      0.246168  1 S  px         
    14      0.043024  1 S  py                13      0.036930  1 S  px         
 
 Vector    6  Occ=1.000000D+00  E=-6.872981D-01
              MO Center=  4.0D-16,  3.3D-16,  2.1D-01, r^2= 9.7D-01
   Bfn.  Coefficient  Atom+Function         Bfn.  Coefficient  Atom+Function  
  ----- ------------  ---------------      ----- ------------  ---------------
     5      0.617805  1 S  s                  6      0.578850  1 S  s          
     4     -0.361709  1 S  s                  3     -0.213903  1 S  s          
    55      0.109716  2 H  s                 54      0.099759  2 H  s          
     2      0.097047  1 S  s                 41     -0.066784  1 S  dyy        
    43     -0.066257  1 S  dzz               38     -0.063948  1 S  dxx        
 
 Vector    7  Occ=1.000000D+00  E=-3.815163D-01
              MO Center= -2.6D-15,  5.6D-16,  1.6D-01, r^2= 1.5D+00
   Bfn.  Coefficient  Atom+Function         Bfn.  Coefficient  Atom+Function  
  ----- ------------  ---------------      ----- ------------  ---------------
    18     -0.376277  1 S  pz                 6      0.372532  1 S  s          
    55     -0.267253  2 H  s                  5      0.232271  1 S  s          
    15     -0.232034  1 S  pz                54     -0.162288  2 H  s          
    12      0.159694  1 S  pz                21     -0.149956  1 S  pz         
     4     -0.136014  1 S  s                 56     -0.117959  2 H  s          
 
 Vector    8  Occ=1.000000D+00  E=-2.943193D-01
              MO Center=  1.0D-15,  5.6D-16, -3.7D-02, r^2= 1.4D+00
   Bfn.  Coefficient  Atom+Function         Bfn.  Coefficient  Atom+Function  
  ----- ------------  ---------------      ----- ------------  ---------------
    16      0.484639  1 S  px                17     -0.415995  1 S  py         
    13      0.218973  1 S  px                19      0.209140  1 S  px         
    14     -0.187957  1 S  py                20     -0.179517  1 S  py         
    10     -0.155225  1 S  px                11      0.133239  1 S  py         
     7     -0.081415  1 S  px                 8      0.069883  1 S  py         
 
 Vector    9  Occ=1.000000D+00  E=-2.451015D-01
              MO Center= -4.2D-16, -2.4D-15, -3.1D-02, r^2= 1.5D+00
   Bfn.  Coefficient  Atom+Function         Bfn.  Coefficient  Atom+Function  
  ----- ------------  ---------------      ----- ------------  ---------------
    17      0.486227  1 S  py                16      0.417358  1 S  px         
    20      0.226692  1 S  py                14      0.208834  1 S  py         
    19      0.194583  1 S  px                13      0.179255  1 S  px         
    11     -0.150898  1 S  py                10     -0.129525  1 S  px         
     8     -0.079423  1 S  py                 7     -0.068173  1 S  px         
 
 Vector   10  Occ=0.000000D+00  E=-2.442027D-02
              MO Center=  7.9D-15,  1.2D-14,  8.6D-01, r^2= 6.8D+00
   Bfn.  Coefficient  Atom+Function         Bfn.  Coefficient  Atom+Function  
  ----- ------------  ---------------      ----- ------------  ---------------
    57      1.738314  2 H  s                 22     -0.846055  1 S  s          
    25     -0.625768  1 S  pz                18     -0.306424  1 S  pz         
     6     -0.272869  1 S  s                  5     -0.259870  1 S  s          
    56      0.165741  2 H  s                 55      0.151078  2 H  s          
    43      0.139885  1 S  dzz                4      0.121504  1 S  s          
 
 Vector   11  Occ=0.000000D+00  E= 2.672334D-02
              MO Center=  2.7D-13,  3.4D-13,  2.5D-01, r^2= 6.2D+00
   Bfn.  Coefficient  Atom+Function         Bfn.  Coefficient  Atom+Function  
  ----- ------------  ---------------      ----- ------------  ---------------
    56      2.159774  2 H  s                 22     -1.386198  1 S  s          
    21     -1.236385  1 S  pz                 6     -0.739147  1 S  s          
    18     -0.729836  1 S  pz                57     -0.309544  2 H  s          
    55      0.298613  2 H  s                 66     -0.278331  2 H  pz         
    37      0.149037  1 S  dzz               25      0.131505  1 S  pz         
 
 Vector   12  Occ=0.000000D+00  E= 4.148086D-02
              MO Center=  1.1D-13,  1.5D-13, -4.4D-01, r^2= 1.2D+01
   Bfn.  Coefficient  Atom+Function         Bfn.  Coefficient  Atom+Function  
  ----- ------------  ---------------      ----- ------------  ---------------
    25     -1.212741  1 S  pz                22      1.103894  1 S  s          
    21      0.758973  1 S  pz                57     -0.681996  2 H  s          
     5     -0.157066  1 S  s                 38     -0.139022  1 S  dxx        
    41     -0.136807  1 S  dyy               15      0.097312  1 S  pz         
    56     -0.088264  2 H  s                 53      0.077031  1 S  fzzz       
 
 Vector   13  Occ=0.000000D+00  E= 4.416786D-02
              MO Center=  2.6D-14, -2.3D-14, -5.6D-02, r^2= 1.2D+01
   Bfn.  Coefficient  Atom+Function         Bfn.  Coefficient  Atom+Function  
  ----- ------------  ---------------      ----- ------------  ---------------
    23      1.248748  1 S  px                24     -1.071714  1 S  py         
    19     -0.664504  1 S  px                20      0.570287  1 S  py         
    13     -0.118269  1 S  px                14      0.101502  1 S  py         
    47     -0.074587  1 S  fxyy              49     -0.069876  1 S  fxzz       
    44     -0.068881  1 S  fxxx              45      0.067208  1 S  fxxy       
 
 Vector   14  Occ=0.000000D+00  E= 5.056814D-02
              MO Center= -4.1D-13, -4.7D-13, -5.9D-02, r^2= 1.2D+01
   Bfn.  Coefficient  Atom+Function         Bfn.  Coefficient  Atom+Function  
  ----- ------------  ---------------      ----- ------------  ---------------
    24      1.291869  1 S  py                23      1.108742  1 S  px         
    20     -0.735947  1 S  py                19     -0.631635  1 S  px         
    14     -0.121376  1 S  py                13     -0.104171  1 S  px         
    52     -0.077225  1 S  fyzz              50     -0.074290  1 S  fyyy       
    45     -0.067917  1 S  fxxy              49     -0.066281  1 S  fxzz       
 
 Vector   15  Occ=0.000000D+00  E= 1.014921D-01
              MO Center= -7.8D-15, -5.6D-15,  1.0D+00, r^2= 1.5D+01
   Bfn.  Coefficient  Atom+Function         Bfn.  Coefficient  Atom+Function  
  ----- ------------  ---------------      ----- ------------  ---------------
    22      6.707883  1 S  s                 57     -6.574317  2 H  s          
    25      3.614250  1 S  pz                21     -1.377024  1 S  pz         
    56      1.112638  2 H  s                  6     -0.725572  1 S  s          
    43     -0.489189  1 S  dzz               38     -0.387854  1 S  dxx        
    41     -0.388764  1 S  dyy                5     -0.384291  1 S  s          
 
 Vector   16  Occ=0.000000D+00  E= 1.543265D-01
              MO Center=  1.1D-15, -9.3D-16,  1.4D-01, r^2= 2.6D+00
   Bfn.  Coefficient  Atom+Function         Bfn.  Coefficient  Atom+Function  
  ----- ------------  ---------------      ----- ------------  ---------------
    40      0.852818  1 S  dxz               42     -0.732025  1 S  dyz        
    34      0.300721  1 S  dxz               36     -0.258127  1 S  dyz        
    64      0.239075  2 H  px                65     -0.205212  2 H  py         
    16     -0.124699  1 S  px                17      0.107037  1 S  py         
    28      0.082684  1 S  dxz               19     -0.075741  1 S  px         
 
 Vector   17  Occ=0.000000D+00  E= 1.760716D-01
              MO Center= -3.9D-16, -9.3D-16,  1.8D-01, r^2= 2.7D+00
   Bfn.  Coefficient  Atom+Function         Bfn.  Coefficient  Atom+Function  
  ----- ------------  ---------------      ----- ------------  ---------------
    42      0.831446  1 S  dyz               40      0.713680  1 S  dxz        
    36      0.275238  1 S  dyz               65      0.270903  2 H  py         
    34      0.236253  1 S  dxz               64      0.232532  2 H  px         
    17     -0.140058  1 S  py                16     -0.120221  1 S  px         
    20     -0.097821  1 S  py                19     -0.083965  1 S  px         
 
 Vector   18  Occ=0.000000D+00  E= 1.907330D-01
              MO Center=  3.0D-16,  6.6D-16, -7.3D-02, r^2= 2.5D+00
   Bfn.  Coefficient  Atom+Function         Bfn.  Coefficient  Atom+Function  
  ----- ------------  ---------------      ----- ------------  ---------------
    38      0.734360  1 S  dxx               41     -0.734410  1 S  dyy        
    39      0.225634  1 S  dxy               32      0.198267  1 S  dxx        
    35     -0.198281  1 S  dyy               33      0.060917  1 S  dxy        
    26      0.058347  1 S  dxx               29     -0.058349  1 S  dyy        
 
 Vector   19  Occ=0.000000D+00  E= 1.913508D-01
              MO Center=  1.5D-15, -9.6D-16, -4.7D-02, r^2= 2.7D+00
   Bfn.  Coefficient  Atom+Function         Bfn.  Coefficient  Atom+Function  
  ----- ------------  ---------------      ----- ------------  ---------------
    39      1.449713  1 S  dxy               56     -0.908000  2 H  s          
    33      0.389725  1 S  dxy                6      0.385061  1 S  s          
    22      0.373815  1 S  s                 21      0.356460  1 S  pz         
    18      0.208416  1 S  pz                38     -0.194936  1 S  dxx        
    43      0.156956  1 S  dzz               27      0.114926  1 S  dxy        
 
 Vector   20  Occ=0.000000D+00  E= 2.514067D-01
              MO Center=  9.6D-14, -1.1D-13,  7.4D-01, r^2= 7.0D+00
   Bfn.  Coefficient  Atom+Function         Bfn.  Coefficient  Atom+Function  
  ----- ------------  ---------------      ----- ------------  ---------------
    56      6.064175  2 H  s                  6     -2.841500  1 S  s          
    21     -2.249478  1 S  pz                22     -1.924249  1 S  s          
    18     -1.427551  1 S  pz                43     -1.118455  1 S  dzz        
    66     -0.979170  2 H  pz                41      0.593308  1 S  dyy        
    38      0.559158  1 S  dxx               46      0.425725  1 S  fxxz       
 
 Vector   21  Occ=0.000000D+00  E= 2.782291D-01
              MO Center=  5.3D-14, -1.1D-13, -1.2D+00, r^2= 7.8D+00
   Bfn.  Coefficient  Atom+Function         Bfn.  Coefficient  Atom+Function  
  ----- ------------  ---------------      ----- ------------  ---------------
    21      4.522784  1 S  pz                56     -3.039278  2 H  s          
    25     -2.749185  1 S  pz                 6      2.437577  1 S  s          
    57      1.502466  2 H  s                 66      0.960046  2 H  pz         
    22     -0.672136  1 S  s                 55     -0.637998  2 H  s          
    18     -0.625964  1 S  pz                43      0.490947  1 S  dzz        
 
 Vector   22  Occ=0.000000D+00  E= 2.857899D-01
              MO Center= -2.1D-13,  1.8D-13, -9.5D-02, r^2= 8.6D+00
   Bfn.  Coefficient  Atom+Function         Bfn.  Coefficient  Atom+Function  
  ----- ------------  ---------------      ----- ------------  ---------------
    19      2.320768  1 S  px                20     -1.991946  1 S  py         
    23     -1.489472  1 S  px                16     -1.462775  1 S  px         
    24      1.278438  1 S  py                17      1.255513  1 S  py         
    49      0.341076  1 S  fxzz              44      0.338219  1 S  fxxx       
    47      0.328813  1 S  fxyy              50     -0.292052  1 S  fyyy       
 
 Vector   23  Occ=0.000000D+00  E= 3.012933D-01
              MO Center=  8.1D-14,  9.1D-14, -9.5D-02, r^2= 8.3D+00
   Bfn.  Coefficient  Atom+Function         Bfn.  Coefficient  Atom+Function  
  ----- ------------  ---------------      ----- ------------  ---------------
    20      2.314818  1 S  py                19      1.986836  1 S  px         
    17     -1.537573  1 S  py                24     -1.460603  1 S  py         
    16     -1.319725  1 S  px                23     -1.253649  1 S  px         
    45      0.369264  1 S  fxxy              50      0.358734  1 S  fyyy       
    52      0.358996  1 S  fyzz              47      0.322843  1 S  fxyy       
 
 Vector   24  Occ=0.000000D+00  E= 4.186512D-01
              MO Center= -1.4D-14, -1.3D-14,  7.8D-01, r^2= 7.5D+00
   Bfn.  Coefficient  Atom+Function         Bfn.  Coefficient  Atom+Function  
  ----- ------------  ---------------      ----- ------------  ---------------
    22      5.242841  1 S  s                 56      4.724056  2 H  s          
    57     -4.639560  2 H  s                 21     -2.951453  1 S  pz         
    25      2.578940  1 S  pz                43     -2.222413  1 S  dzz        
    38     -2.044283  1 S  dxx               41     -2.043077  1 S  dyy        
    66     -0.691165  2 H  pz                55     -0.681069  2 H  s          
 
 Vector   25  Occ=0.000000D+00  E= 4.613989D-01
              MO Center=  4.0D-14, -3.4D-14,  9.3D-01, r^2= 3.5D+00
   Bfn.  Coefficient  Atom+Function         Bfn.  Coefficient  Atom+Function  
  ----- ------------  ---------------      ----- ------------  ---------------
    40      1.590417  1 S  dxz               64     -1.446227  2 H  px         
    42     -1.365156  1 S  dyz               65      1.241388  2 H  py         
    19      0.797553  1 S  px                20     -0.684591  1 S  py         
    16      0.452037  1 S  px                17     -0.388013  1 S  py         
    23     -0.208108  1 S  px                24      0.178633  1 S  py         
 
 Vector   26  Occ=0.000000D+00  E= 4.687659D-01
              MO Center= -6.6D-14, -4.3D-15,  6.8D-01, r^2= 3.8D+00
   Bfn.  Coefficient  Atom+Function         Bfn.  Coefficient  Atom+Function  
  ----- ------------  ---------------      ----- ------------  ---------------
     6      2.792741  1 S  s                 56     -1.932930  2 H  s          
    43     -1.636754  1 S  dzz               66      1.585884  2 H  pz         
    22      1.462939  1 S  s                 55      1.397469  2 H  s          
    18      1.304685  1 S  pz                21     -0.982610  1 S  pz         
    25      0.964035  1 S  pz                57     -0.702782  2 H  s          
 
 Vector   27  Occ=0.000000D+00  E= 4.730138D-01
              MO Center=  3.0D-14,  3.6D-14,  8.9D-01, r^2= 3.5D+00
   Bfn.  Coefficient  Atom+Function         Bfn.  Coefficient  Atom+Function  
  ----- ------------  ---------------      ----- ------------  ---------------
    42      1.628695  1 S  dyz               65     -1.446213  2 H  py         
    40      1.398012  1 S  dxz               64     -1.241376  2 H  px         
    20      0.803023  1 S  py                19      0.689285  1 S  px         
    17      0.452809  1 S  py                16      0.388674  1 S  px         
    24     -0.211149  1 S  py                23     -0.181242  1 S  px         
 
 Vector   28  Occ=0.000000D+00  E= 7.379815D-01
              MO Center=  3.1D-15, -1.8D-14,  2.1D-01, r^2= 6.1D+00
   Bfn.  Coefficient  Atom+Function         Bfn.  Coefficient  Atom+Function  
  ----- ------------  ---------------      ----- ------------  ---------------
    56     10.246613  2 H  s                  6     -8.813163  1 S  s          
    18     -5.775330  1 S  pz                21     -5.107010  1 S  pz         
    66     -4.505206  2 H  pz                43     -3.486945  1 S  dzz        
    55      3.420706  2 H  s                 57     -1.553213  2 H  s          
    25      1.289109  1 S  pz                51      1.180439  1 S  fyyz       
 
 Vector   29  Occ=0.000000D+00  E= 8.989775D-01
              MO Center=  7.0D-16, -2.7D-16, -1.3D-01, r^2= 1.7D+00
   Bfn.  Coefficient  Atom+Function         Bfn.  Coefficient  Atom+Function  
  ----- ------------  ---------------      ----- ------------  ---------------
    34      1.224439  1 S  dxz               40     -1.217551  1 S  dxz        
    36     -1.051010  1 S  dyz               42      1.045097  1 S  dyz        
    16     -0.217998  1 S  px                28      0.203754  1 S  dxz        
    64      0.188575  2 H  px                17      0.187122  1 S  py         
    30     -0.174895  1 S  dyz               65     -0.161865  2 H  py         
 
 Vector   30  Occ=0.000000D+00  E= 9.177031D-01
              MO Center=  9.6D-13,  1.1D-12,  3.5D-02, r^2= 1.9D+00
   Bfn.  Coefficient  Atom+Function         Bfn.  Coefficient  Atom+Function  
  ----- ------------  ---------------      ----- ------------  ---------------
    33      1.468194  1 S  dxy               18     -1.099071  1 S  pz         
    39     -1.061530  1 S  dxy               21      0.750639  1 S  pz         
    25     -0.571404  1 S  pz                66      0.561232  2 H  pz         
    22     -0.554117  1 S  s                 51      0.545395  1 S  fyyz       
    46      0.540020  1 S  fxxz              15      0.470763  1 S  pz         
 
 Vector   31  Occ=0.000000D+00  E= 9.238504D-01
              MO Center= -7.1D-15,  2.5D-15, -7.7D-02, r^2= 1.5D+00
   Bfn.  Coefficient  Atom+Function         Bfn.  Coefficient  Atom+Function  
  ----- ------------  ---------------      ----- ------------  ---------------
    32      0.845634  1 S  dxx               35     -0.845673  1 S  dyy        
    38     -0.608440  1 S  dxx               41      0.608535  1 S  dyy        
    33      0.259472  1 S  dxy               39     -0.186702  1 S  dxy        
    26      0.142741  1 S  dxx               29     -0.142749  1 S  dyy        
    27      0.043799  1 S  dxy        
 
 Vector   32  Occ=0.000000D+00  E= 9.292376D-01
              MO Center= -1.5D-12, -1.8D-12, -1.2D-01, r^2= 1.7D+00
   Bfn.  Coefficient  Atom+Function         Bfn.  Coefficient  Atom+Function  
  ----- ------------  ---------------      ----- ------------  ---------------
    36      1.225755  1 S  dyz               42     -1.185200  1 S  dyz        
    34      1.052140  1 S  dxz               40     -1.017328  1 S  dxz        
    17     -0.207023  1 S  py                30      0.207160  1 S  dyz        
    16     -0.177698  1 S  px                28      0.177818  1 S  dxz        
    65      0.172310  2 H  py                62      0.163395  2 H  py         
 
 Vector   33  Occ=0.000000D+00  E= 9.477085D-01
              MO Center=  5.7D-13,  6.7D-13,  1.9D-01, r^2= 2.6D+00
   Bfn.  Coefficient  Atom+Function         Bfn.  Coefficient  Atom+Function  
  ----- ------------  ---------------      ----- ------------  ---------------
    18      2.610780  1 S  pz                21     -1.325379  1 S  pz         
    22      1.259599  1 S  s                 46     -1.133404  1 S  fxxz       
    51     -1.130001  1 S  fyyz              25      1.113978  1 S  pz         
    53     -0.981341  1 S  fzzz              15     -0.968632  1 S  pz         
    57     -0.850681  2 H  s                 41     -0.844652  1 S  dyy        
 
 Vector   34  Occ=0.000000D+00  E= 1.054916D+00
              MO Center= -4.8D-14,  4.5D-14, -6.1D-02, r^2= 3.7D+00
   Bfn.  Coefficient  Atom+Function         Bfn.  Coefficient  Atom+Function  
  ----- ------------  ---------------      ----- ------------  ---------------
    16      4.571537  1 S  px                17     -3.924002  1 S  py         
    49     -1.777630  1 S  fxzz              44     -1.754487  1 S  fxxx       
    47     -1.759193  1 S  fxyy              19     -1.674879  1 S  px         
    13     -1.536923  1 S  px                52      1.525838  1 S  fyzz       
    45      1.512659  1 S  fxxy              50      1.505091  1 S  fyyy       
 
 Vector   35  Occ=0.000000D+00  E= 1.084300D+00
              MO Center=  2.6D-14,  2.9D-14, -6.1D-02, r^2= 3.7D+00
   Bfn.  Coefficient  Atom+Function         Bfn.  Coefficient  Atom+Function  
  ----- ------------  ---------------      ----- ------------  ---------------
    17      4.564569  1 S  py                16      3.918019  1 S  px         
    52     -1.786553  1 S  fyzz              45     -1.755974  1 S  fxxy       
    50     -1.760647  1 S  fyyy              20     -1.650947  1 S  py         
    14     -1.537136  1 S  py                49     -1.533496  1 S  fxzz       
    44     -1.512127  1 S  fxxx              47     -1.504644  1 S  fxyy       
 
 Vector   36  Occ=0.000000D+00  E= 1.187235D+00
              MO Center= -2.8D-15, -1.1D-14, -2.1D-01, r^2= 3.2D+00
   Bfn.  Coefficient  Atom+Function         Bfn.  Coefficient  Atom+Function  
  ----- ------------  ---------------      ----- ------------  ---------------
    18      7.556620  1 S  pz                56     -3.644039  2 H  s          
    53     -2.884077  1 S  fzzz              51     -2.130844  1 S  fyyz       
    46     -2.118014  1 S  fxxz              66      2.082709  2 H  pz         
    15     -2.004944  1 S  pz                43      1.489488  1 S  dzz        
     5      1.265672  1 S  s                 38      0.830091  1 S  dxx        
 
 Vector   37  Occ=0.000000D+00  E= 1.319735D+00
              MO Center=  9.7D-15, -3.6D-14,  2.7D-01, r^2= 3.5D+00
   Bfn.  Coefficient  Atom+Function         Bfn.  Coefficient  Atom+Function  
  ----- ------------  ---------------      ----- ------------  ---------------
     6     11.414312  1 S  s                  5     -4.334872  1 S  s          
    43     -4.056423  1 S  dzz               38     -3.748445  1 S  dxx        
    41     -3.743160  1 S  dyy               22      3.185967  1 S  s          
    57     -2.326812  2 H  s                 18      2.001451  1 S  pz         
    21     -1.750140  1 S  pz                56      1.691673  2 H  s          
 
 Vector   38  Occ=0.000000D+00  E= 1.532843D+00
              MO Center=  6.2D-16, -2.6D-17,  5.1D-01, r^2= 1.7D+00
   Bfn.  Coefficient  Atom+Function         Bfn.  Coefficient  Atom+Function  
  ----- ------------  ---------------      ----- ------------  ---------------
    49      1.321054  1 S  fxzz              52     -1.133921  1 S  fyzz       
    64     -0.827274  2 H  px                40      0.759681  1 S  dxz        
    65      0.710089  2 H  py                45      0.661727  1 S  fxxy       
    42     -0.652070  1 S  dyz               47     -0.568914  1 S  fxyy       
    61      0.525996  2 H  px                62     -0.451487  2 H  py         
 
 Vector   39  Occ=0.000000D+00  E= 1.554842D+00
              MO Center= -1.5D-16,  5.9D-16, -3.9D-02, r^2= 1.2D+00
   Bfn.  Coefficient  Atom+Function         Bfn.  Coefficient  Atom+Function  
  ----- ------------  ---------------      ----- ------------  ---------------
    46      1.858463  1 S  fxxz              51     -1.861473  1 S  fyyz       
    48      0.594225  1 S  fxyz              67      0.088646  2 H  dxx        
    70     -0.088604  2 H  dyy               68      0.028313  2 H  dxy        
 
 Vector   40  Occ=0.000000D+00  E= 1.555011D+00
              MO Center=  7.5D-16,  1.8D-15, -3.8D-02, r^2= 1.2D+00
   Bfn.  Coefficient  Atom+Function         Bfn.  Coefficient  Atom+Function  
  ----- ------------  ---------------      ----- ------------  ---------------
    48      3.714082  1 S  fxyz              18      0.580535  1 S  pz         
    46     -0.536661  1 S  fxxz               6      0.482313  1 S  s          
    56     -0.375729  2 H  s                 55     -0.229199  2 H  s          
    66      0.205201  2 H  pz                68      0.176823  2 H  dxy        
    43      0.122782  1 S  dzz               15     -0.119599  1 S  pz         
 
 Vector   41  Occ=0.000000D+00  E= 1.555599D+00
              MO Center=  2.1D-16, -1.2D-15,  4.7D-01, r^2= 1.7D+00
   Bfn.  Coefficient  Atom+Function         Bfn.  Coefficient  Atom+Function  
  ----- ------------  ---------------      ----- ------------  ---------------
    52      1.226661  1 S  fyzz              49      1.052886  1 S  fxzz       
    65     -0.785890  2 H  py                42      0.715563  1 S  dyz        
    64     -0.674554  2 H  px                40      0.614190  1 S  dxz        
    62      0.516640  2 H  py                44     -0.504816  1 S  fxxx       
    47      0.466056  1 S  fxyy              50     -0.456597  1 S  fyyy       
 
 Vector   42  Occ=0.000000D+00  E= 1.580278D+00
              MO Center= -4.5D-16,  3.4D-16, -5.5D-02, r^2= 1.2D+00
   Bfn.  Coefficient  Atom+Function         Bfn.  Coefficient  Atom+Function  
  ----- ------------  ---------------      ----- ------------  ---------------
    45      1.944656  1 S  fxxy              47     -1.194119  1 S  fxyy       
    50     -0.692039  1 S  fyyy              44      0.449086  1 S  fxxx       
    49     -0.246718  1 S  fxzz              52      0.211844  1 S  fyzz       
    64      0.155929  2 H  px                40     -0.134923  1 S  dxz        
    65     -0.133880  2 H  py                42      0.115844  1 S  dyz        
 
 Vector   43  Occ=0.000000D+00  E= 1.582016D+00
              MO Center=  1.1D-15, -8.4D-16,  1.1D-02, r^2= 1.3D+00
   Bfn.  Coefficient  Atom+Function         Bfn.  Coefficient  Atom+Function  
  ----- ------------  ---------------      ----- ------------  ---------------
    47      1.953986  1 S  fxyy              45      1.260021  1 S  fxxy       
    44     -0.547245  1 S  fxxx              52     -0.472935  1 S  fyzz       
    49     -0.406013  1 S  fxzz              65      0.304554  2 H  py         
    50     -0.298777  1 S  fyyy              42     -0.268036  1 S  dyz        
    64      0.261465  2 H  px                40     -0.230114  1 S  dxz        
 
 Vector   44  Occ=0.000000D+00  E= 1.884613D+00
              MO Center=  2.3D-15,  5.6D-16,  2.4D-01, r^2= 2.9D+00
   Bfn.  Coefficient  Atom+Function         Bfn.  Coefficient  Atom+Function  
  ----- ------------  ---------------      ----- ------------  ---------------
    18      6.933707  1 S  pz                56     -5.974072  2 H  s          
     6      5.797097  1 S  s                 55     -5.595641  2 H  s          
    66      3.424640  2 H  pz                21      3.143037  1 S  pz         
    43      2.985859  1 S  dzz               51     -2.896306  1 S  fyyz       
    46     -2.873377  1 S  fxxz              15     -1.697692  1 S  pz         
 
 Vector   45  Occ=0.000000D+00  E= 2.039470D+00
              MO Center= -5.3D-16,  6.1D-16,  6.7D-01, r^2= 1.6D+00
   Bfn.  Coefficient  Atom+Function         Bfn.  Coefficient  Atom+Function  
  ----- ------------  ---------------      ----- ------------  ---------------
    49      1.362104  1 S  fxzz              52     -1.169181  1 S  fyzz       
    61     -0.892231  2 H  px                62      0.765859  2 H  py         
    44     -0.545613  1 S  fxxx              47     -0.522275  1 S  fxyy       
    50      0.472693  1 S  fyyy              16      0.438251  1 S  px         
    45      0.435227  1 S  fxxy              17     -0.376179  1 S  py         
 
 Vector   46  Occ=0.000000D+00  E= 2.061289D+00
              MO Center=  4.8D-18, -4.0D-16,  6.4D-01, r^2= 1.6D+00
   Bfn.  Coefficient  Atom+Function         Bfn.  Coefficient  Atom+Function  
  ----- ------------  ---------------      ----- ------------  ---------------
    52      1.396804  1 S  fyzz              49      1.198966  1 S  fxzz       
    62     -0.876022  2 H  py                61     -0.751946  2 H  px         
    45     -0.557393  1 S  fxxy              50     -0.533326  1 S  fyyy       
    47     -0.491918  1 S  fxyy              44     -0.453297  1 S  fxxx       
    17      0.425110  1 S  py                16      0.364899  1 S  px         
 
 Vector   47  Occ=0.000000D+00  E= 2.074998D+00
              MO Center=  7.0D-16, -4.1D-16,  8.3D-01, r^2= 2.2D+00
   Bfn.  Coefficient  Atom+Function         Bfn.  Coefficient  Atom+Function  
  ----- ------------  ---------------      ----- ------------  ---------------
    55      5.519227  2 H  s                 18     -1.956061  1 S  pz         
    54     -1.908628  2 H  s                  6     -1.786544  1 S  s          
    66     -1.316039  2 H  pz                21     -1.242547  1 S  pz         
    72     -1.079736  2 H  dzz               43     -1.033130  1 S  dzz        
    53      0.880831  1 S  fzzz              67     -0.818325  2 H  dxx        
 
 Vector   48  Occ=0.000000D+00  E= 2.529254D+00
              MO Center=  9.2D-15, -1.1D-14,  7.1D-01, r^2= 1.7D+00
   Bfn.  Coefficient  Atom+Function         Bfn.  Coefficient  Atom+Function  
  ----- ------------  ---------------      ----- ------------  ---------------
     6      4.256133  1 S  s                 18      3.546875  1 S  pz         
    55     -3.181100  2 H  s                 46     -2.187237  1 S  fxxz       
    51     -2.191421  1 S  fyyz              63      1.737925  2 H  pz         
    38     -1.311511  1 S  dxx               41     -1.310910  1 S  dyy        
     5     -0.983183  1 S  s                 22      0.732381  1 S  s          
 
 Vector   49  Occ=0.000000D+00  E= 2.946623D+00
              MO Center=  1.8D-14, -1.4D-14, -5.0D-02, r^2= 1.7D+00
   Bfn.  Coefficient  Atom+Function         Bfn.  Coefficient  Atom+Function  
  ----- ------------  ---------------      ----- ------------  ---------------
    16      4.540333  1 S  px                17     -3.897299  1 S  py         
    44     -2.799919  1 S  fxxx              47     -2.787874  1 S  fxyy       
    49     -2.686619  1 S  fxzz              50      2.405623  1 S  fyyy       
    45      2.386290  1 S  fxxy              52      2.306121  1 S  fyzz       
    19     -0.941281  1 S  px                20      0.807970  1 S  py         
 
 Vector   50  Occ=0.000000D+00  E= 2.983548D+00
              MO Center=  2.9D-14,  3.2D-14, -4.9D-02, r^2= 1.7D+00
   Bfn.  Coefficient  Atom+Function         Bfn.  Coefficient  Atom+Function  
  ----- ------------  ---------------      ----- ------------  ---------------
    17      4.523034  1 S  py                16      3.882451  1 S  px         
    45     -2.802420  1 S  fxxy              50     -2.790285  1 S  fyyy       
    52     -2.665406  1 S  fyzz              47     -2.412316  1 S  fxyy       
    44     -2.392841  1 S  fxxx              49     -2.287913  1 S  fxzz       
    20     -0.933792  1 S  py                19     -0.801542  1 S  px         
 
 Vector   51  Occ=0.000000D+00  E= 3.113320D+00
              MO Center= -1.5D-15,  5.6D-16,  1.1D+00, r^2= 8.6D-01
   Bfn.  Coefficient  Atom+Function         Bfn.  Coefficient  Atom+Function  
  ----- ------------  ---------------      ----- ------------  ---------------
    18      2.299995  1 S  pz                68     -1.696738  2 H  dxy        
    53     -1.345234  1 S  fzzz              46     -1.207110  1 S  fxxz       
    48      1.177934  1 S  fxyz              51     -1.028244  1 S  fyyz       
    56     -0.604839  2 H  s                 55     -0.450962  2 H  s          
     6      0.422467  1 S  s                 66      0.403322  2 H  pz         
 
 Vector   52  Occ=0.000000D+00  E= 3.113369D+00
              MO Center=  1.4D-16,  1.9D-16,  1.2D+00, r^2= 6.8D-01
   Bfn.  Coefficient  Atom+Function         Bfn.  Coefficient  Atom+Function  
  ----- ------------  ---------------      ----- ------------  ---------------
    67      0.876861  2 H  dxx               70     -0.876787  2 H  dyy        
    46     -0.612934  1 S  fxxz              51      0.609749  1 S  fyyz       
    68      0.266465  2 H  dxy               48     -0.185793  1 S  fxyz       
    38     -0.092424  1 S  dxx               41      0.092517  1 S  dyy        
    26     -0.039641  1 S  dxx               29      0.039670  1 S  dyy        
 
 Vector   53  Occ=0.000000D+00  E= 3.116012D+00
              MO Center=  3.4D-15, -2.1D-15, -1.0D-01, r^2= 1.8D+00
   Bfn.  Coefficient  Atom+Function         Bfn.  Coefficient  Atom+Function  
  ----- ------------  ---------------      ----- ------------  ---------------
    18      8.742031  1 S  pz                53     -5.101509  1 S  fzzz       
    51     -4.326340  1 S  fyyz              46     -4.275710  1 S  fxxz       
    56     -2.308993  2 H  s                  6      1.605951  1 S  s          
    55     -1.581354  2 H  s                 66      1.511772  2 H  pz         
    63     -1.122119  2 H  pz                43      1.019119  1 S  dzz        
 
 Vector   54  Occ=0.000000D+00  E= 3.603408D+00
              MO Center=  1.2D-15, -6.0D-16,  8.7D-01, r^2= 1.1D+00
   Bfn.  Coefficient  Atom+Function         Bfn.  Coefficient  Atom+Function  
  ----- ------------  ---------------      ----- ------------  ---------------
    69      1.489456  2 H  dxz               49      1.474439  1 S  fxzz       
    71     -1.278488  2 H  dyz               52     -1.265599  1 S  fyzz       
    40      0.537604  1 S  dxz               28      0.473883  1 S  dxz        
    42     -0.461457  1 S  dyz               30     -0.406762  1 S  dyz        
    64     -0.382554  2 H  px                65      0.328368  2 H  py         
 
 Vector   55  Occ=0.000000D+00  E= 3.617189D+00
              MO Center=  2.7D-15,  2.4D-15,  8.6D-01, r^2= 1.1D+00
   Bfn.  Coefficient  Atom+Function         Bfn.  Coefficient  Atom+Function  
  ----- ------------  ---------------      ----- ------------  ---------------
    52      1.491289  1 S  fyzz              71      1.489179  2 H  dyz        
    49      1.280061  1 S  fxzz              69      1.278250  2 H  dxz        
    42      0.537036  1 S  dyz               30      0.473099  1 S  dyz        
    40      0.460970  1 S  dxz               28      0.406089  1 S  dxz        
    65     -0.380991  2 H  py                64     -0.327027  2 H  px         
 
 Vector   56  Occ=0.000000D+00  E= 3.802737D+00
              MO Center= -5.0D-14, -6.3D-15,  1.8D-01, r^2= 1.5D+00
   Bfn.  Coefficient  Atom+Function         Bfn.  Coefficient  Atom+Function  
  ----- ------------  ---------------      ----- ------------  ---------------
     5      7.962134  1 S  s                  6      7.391774  1 S  s          
    32     -4.520603  1 S  dxx               35     -4.516377  1 S  dyy        
    37     -4.367628  1 S  dzz               38     -2.112451  1 S  dxx        
    41     -2.113872  1 S  dyy                4     -2.095662  1 S  s          
    43     -2.077607  1 S  dzz               22      1.438160  1 S  s          
 
 Vector   57  Occ=0.000000D+00  E= 4.187980D+00
              MO Center= -2.1D-14,  8.5D-15,  8.6D-01, r^2= 1.4D+00
   Bfn.  Coefficient  Atom+Function         Bfn.  Coefficient  Atom+Function  
  ----- ------------  ---------------      ----- ------------  ---------------
    55      4.651797  2 H  s                 18     -3.185287  1 S  pz         
    56      2.944296  2 H  s                  5      2.708958  1 S  s          
    37     -2.619832  1 S  dzz               43     -2.157200  1 S  dzz        
    66     -1.966515  2 H  pz                21     -1.896175  1 S  pz         
    32     -1.749999  1 S  dxx               35     -1.744829  1 S  dyy        
 
 Vector   58  Occ=0.000000D+00  E= 4.531933D+00
              MO Center=  8.4D-15, -6.5D-15,  1.1D-01, r^2= 7.1D-01
   Bfn.  Coefficient  Atom+Function         Bfn.  Coefficient  Atom+Function  
  ----- ------------  ---------------      ----- ------------  ---------------
    55      2.141782  2 H  s                 27      1.772115  1 S  dxy        
    18     -1.337429  1 S  pz                33     -1.232328  1 S  dxy        
     6     -0.909456  1 S  s                 72     -0.729730  2 H  dzz        
    67     -0.617935  2 H  dxx               70     -0.604451  2 H  dyy        
    53      0.542086  1 S  fzzz              66     -0.455589  2 H  pz         
 
 Vector   59  Occ=0.000000D+00  E= 4.533614D+00
              MO Center= -2.5D-15,  2.0D-15, -7.3D-02, r^2= 4.5D-01
   Bfn.  Coefficient  Atom+Function         Bfn.  Coefficient  Atom+Function  
  ----- ------------  ---------------      ----- ------------  ---------------
    26      0.964995  1 S  dxx               29     -0.965038  1 S  dyy        
    32     -0.671133  1 S  dxx               35      0.671159  1 S  dyy        
    27      0.296441  1 S  dxy               38      0.213778  1 S  dxx        
    41     -0.213716  1 S  dyy               33     -0.206168  1 S  dxy        
    39      0.065661  1 S  dxy               70     -0.048870  2 H  dyy        
 
 Vector   60  Occ=0.000000D+00  E= 4.547635D+00
              MO Center= -9.3D-17,  2.7D-15,  8.9D-01, r^2= 1.1D+00
   Bfn.  Coefficient  Atom+Function         Bfn.  Coefficient  Atom+Function  
  ----- ------------  ---------------      ----- ------------  ---------------
    55      4.699694  2 H  s                 18     -2.987335  1 S  pz         
     6     -2.417809  1 S  s                 72     -1.765895  2 H  dzz        
    67     -1.356696  2 H  dxx               70     -1.363121  2 H  dyy        
    53      1.346778  1 S  fzzz              66     -0.948669  2 H  pz         
    46      0.902912  1 S  fxxz              51      0.906755  1 S  fyyz       
 
 Vector   61  Occ=0.000000D+00  E= 4.781936D+00
              MO Center= -1.9D-15,  7.2D-16,  1.2D-01, r^2= 6.3D-01
   Bfn.  Coefficient  Atom+Function         Bfn.  Coefficient  Atom+Function  
  ----- ------------  ---------------      ----- ------------  ---------------
    28      1.418553  1 S  dxz               34     -1.250867  1 S  dxz        
    30     -1.217643  1 S  dyz               36      1.073706  1 S  dyz        
    69     -0.706310  2 H  dxz               49     -0.692533  1 S  fxzz       
    71      0.606275  2 H  dyz               52      0.594449  1 S  fyzz       
    40      0.240685  1 S  dxz               61      0.213446  2 H  px         
 
 Vector   62  Occ=0.000000D+00  E= 4.809011D+00
              MO Center= -1.9D-15, -1.8D-15,  1.2D-01, r^2= 6.3D-01
   Bfn.  Coefficient  Atom+Function         Bfn.  Coefficient  Atom+Function  
  ----- ------------  ---------------      ----- ------------  ---------------
    30      1.418222  1 S  dyz               36     -1.254008  1 S  dyz        
    28      1.217359  1 S  dxz               34     -1.076403  1 S  dxz        
    71     -0.704307  2 H  dyz               52     -0.695333  1 S  fyzz       
    69     -0.604556  2 H  dxz               49     -0.596854  1 S  fxzz       
    42      0.240538  1 S  dyz               62      0.213995  2 H  py         
 
 Vector   63  Occ=0.000000D+00  E= 5.710997D+00
              MO Center=  2.1D-15, -1.2D-16,  1.3D-01, r^2= 7.9D-01
   Bfn.  Coefficient  Atom+Function         Bfn.  Coefficient  Atom+Function  
  ----- ------------  ---------------      ----- ------------  ---------------
    37      3.643095  1 S  dzz                5     -3.070674  1 S  s          
    53      2.361933  1 S  fzzz              63      2.049206  2 H  pz         
     6      1.802836  1 S  s                 72     -1.632510  2 H  dzz        
    55     -1.049850  2 H  s                 31     -0.900238  1 S  dzz        
    56     -0.896406  2 H  s                 26      0.754942  1 S  dxx        
 
 Vector   64  Occ=0.000000D+00  E= 8.572753D+00
              MO Center=  1.8D-16, -3.6D-17,  1.3D+00, r^2= 2.9D-01
   Bfn.  Coefficient  Atom+Function         Bfn.  Coefficient  Atom+Function  
  ----- ------------  ---------------      ----- ------------  ---------------
    58      0.974552  2 H  px                59     -0.836518  2 H  py         
    61     -0.736375  2 H  px                62      0.632075  2 H  py         
    49      0.293394  1 S  fxzz              64      0.278248  2 H  px         
    52     -0.251838  1 S  fyzz              65     -0.238837  2 H  py         
    34      0.226171  1 S  dxz               36     -0.194136  1 S  dyz        
 
 Vector   65  Occ=0.000000D+00  E= 8.578127D+00
              MO Center= -8.2D-17, -9.4D-17,  1.3D+00, r^2= 2.9D-01
   Bfn.  Coefficient  Atom+Function         Bfn.  Coefficient  Atom+Function  
  ----- ------------  ---------------      ----- ------------  ---------------
    59      0.974559  2 H  py                58      0.836523  2 H  px         
    62     -0.736949  2 H  py                61     -0.632568  2 H  px         
    52      0.294411  1 S  fyzz              65      0.278221  2 H  py         
    49      0.252711  1 S  fxzz              64      0.238814  2 H  px         
    36      0.227438  1 S  dyz               34      0.195224  1 S  dxz        
 
 Vector   66  Occ=0.000000D+00  E= 9.330247D+00
              MO Center= -6.4D-16,  4.1D-17,  1.1D+00, r^2= 4.9D-01
   Bfn.  Coefficient  Atom+Function         Bfn.  Coefficient  Atom+Function  
  ----- ------------  ---------------      ----- ------------  ---------------
     5      4.330520  1 S  s                 37     -2.706218  1 S  dzz        
    63     -2.256018  2 H  pz                55      1.537978  2 H  s          
    53     -1.408094  1 S  fzzz              60      1.397590  2 H  pz         
     6     -1.047027  1 S  s                 32     -1.028863  1 S  dxx        
    35     -1.028694  1 S  dyy               72      0.828618  2 H  dzz        
 
 Vector   67  Occ=0.000000D+00  E= 1.012430D+01
              MO Center= -1.6D-14,  4.1D-15, -3.9D-02, r^2= 6.8D-01
   Bfn.  Coefficient  Atom+Function         Bfn.  Coefficient  Atom+Function  
  ----- ------------  ---------------      ----- ------------  ---------------
     5     18.924226  1 S  s                 32     -6.362846  1 S  dxx        
    35     -6.362424  1 S  dyy               37     -6.241776  1 S  dzz        
    26     -3.361450  1 S  dxx               29     -3.361831  1 S  dyy        
    31     -3.365560  1 S  dzz                3     -1.948062  1 S  s          
     6      1.301376  1 S  s                 43     -0.806539  1 S  dzz        
 
 Vector   68  Occ=0.000000D+00  E= 1.842519D+01
              MO Center=  6.4D-16, -4.3D-16, -8.0D-02, r^2= 2.1D-01
   Bfn.  Coefficient  Atom+Function         Bfn.  Coefficient  Atom+Function  
  ----- ------------  ---------------      ----- ------------  ---------------
    16      1.430440  1 S  px                17     -1.227829  1 S  py         
    10     -1.157538  1 S  px                49     -1.009171  1 S  fxzz       
    11      0.993581  1 S  py                44     -0.988864  1 S  fxxx       
    47     -0.989012  1 S  fxyy               7      0.932369  1 S  px         
    52      0.866230  1 S  fyzz              45      0.849010  1 S  fxxy       
 
 Vector   69  Occ=0.000000D+00  E= 1.844593D+01
              MO Center=  1.3D-15,  1.3D-15, -8.0D-02, r^2= 2.1D-01
   Bfn.  Coefficient  Atom+Function         Bfn.  Coefficient  Atom+Function  
  ----- ------------  ---------------      ----- ------------  ---------------
    17      1.430230  1 S  py                16      1.227649  1 S  px         
    11     -1.157748  1 S  py                52     -1.009453  1 S  fyzz       
    10     -0.993762  1 S  px                45     -0.988867  1 S  fxxy       
    50     -0.989013  1 S  fyyy               8      0.932263  1 S  py         
    49     -0.866472  1 S  fxzz              44     -0.848954  1 S  fxxx       
 
 Vector   70  Occ=0.000000D+00  E= 1.864092D+01
              MO Center=  4.6D-16,  7.9D-17, -6.6D-02, r^2= 2.1D-01
   Bfn.  Coefficient  Atom+Function         Bfn.  Coefficient  Atom+Function  
  ----- ------------  ---------------      ----- ------------  ---------------
    18      2.780701  1 S  pz                46     -1.584819  1 S  fxxz       
    51     -1.584774  1 S  fyyz              12     -1.546645  1 S  pz         
    53     -1.410239  1 S  fzzz               9      1.229671  1 S  pz         
     6      0.870326  1 S  s                 55     -0.852795  2 H  s          
    56     -0.779377  2 H  s                 15      0.650353  1 S  pz         
 
 Vector   71  Occ=0.000000D+00  E= 2.486341D+01
              MO Center= -4.4D-15,  2.4D-15, -7.8D-02, r^2= 2.6D-01
   Bfn.  Coefficient  Atom+Function         Bfn.  Coefficient  Atom+Function  
  ----- ------------  ---------------      ----- ------------  ---------------
     5     16.376912  1 S  s                  4     15.742228  1 S  s          
     3    -12.094264  1 S  s                 26     -6.860990  1 S  dxx        
    29     -6.861039  1 S  dyy               31     -6.845937  1 S  dzz        
    37     -4.981136  1 S  dzz               32     -4.925122  1 S  dxx        
    35     -4.925075  1 S  dyy                2      0.664786  1 S  s          
 
 Vector   72  Occ=0.000000D+00  E= 2.191916D+02
              MO Center= -7.3D-16,  2.1D-16, -7.9D-02, r^2= 3.3D-02
   Bfn.  Coefficient  Atom+Function         Bfn.  Coefficient  Atom+Function  
  ----- ------------  ---------------      ----- ------------  ---------------
     4      7.658723  1 S  s                  3     -6.351026  1 S  s          
     5      5.453225  1 S  s                 26     -2.787545  1 S  dxx        
    29     -2.787546  1 S  dyy               31     -2.781504  1 S  dzz        
     2      2.292598  1 S  s                 37     -1.681117  1 S  dzz        
    32     -1.654726  1 S  dxx               35     -1.654726  1 S  dyy        
 
 
                     DFT Final Beta Molecular Orbital Analysis
                     -----------------------------------------
 
 Vector    1  Occ=1.000000D+00  E=-8.837876D+01
              MO Center= -1.0D-18,  9.5D-19, -7.9D-02, r^2= 3.6D-03
   Bfn.  Coefficient  Atom+Function         Bfn.  Coefficient  Atom+Function  
  ----- ------------  ---------------      ----- ------------  ---------------
     2      0.653587  1 S  s                  1      0.411439  1 S  s          
 
 Vector    2  Occ=1.000000D+00  E=-7.765179D+00
              MO Center= -6.7D-16,  3.8D-16, -7.7D-02, r^2= 7.7D-02
   Bfn.  Coefficient  Atom+Function         Bfn.  Coefficient  Atom+Function  
  ----- ------------  ---------------      ----- ------------  ---------------
     4      0.591570  1 S  s                  3      0.511532  1 S  s          
     2     -0.320354  1 S  s                  5      0.120493  1 S  s          
     1     -0.119406  1 S  s                  6     -0.047595  1 S  s          
 
 Vector    3  Occ=1.000000D+00  E=-5.744278D+00
              MO Center= -4.1D-16,  5.6D-16, -8.0D-02, r^2= 6.9D-02
   Bfn.  Coefficient  Atom+Function         Bfn.  Coefficient  Atom+Function  
  ----- ------------  ---------------      ----- ------------  ---------------
    12      0.707196  1 S  pz                 9      0.377469  1 S  pz         
    15      0.056349  1 S  pz         
 
 Vector    4  Occ=1.000000D+00  E=-5.742183D+00
              MO Center=  9.6D-16, -8.3D-16, -7.9D-02, r^2= 6.9D-02
   Bfn.  Coefficient  Atom+Function         Bfn.  Coefficient  Atom+Function  
  ----- ------------  ---------------      ----- ------------  ---------------
    10      0.537133  1 S  px                11     -0.461054  1 S  py         
     7      0.286165  1 S  px                 8     -0.245633  1 S  py         
    13      0.042610  1 S  px                14     -0.036574  1 S  py         
 
 Vector    5  Occ=1.000000D+00  E=-5.735031D+00
              MO Center=  1.2D-16,  9.0D-18, -7.9D-02, r^2= 6.9D-02
   Bfn.  Coefficient  Atom+Function         Bfn.  Coefficient  Atom+Function  
  ----- ------------  ---------------      ----- ------------  ---------------
    11      0.536779  1 S  py                10      0.460750  1 S  px         
     8      0.286707  1 S  py                 7      0.246098  1 S  px         
    14      0.042701  1 S  py                13      0.036653  1 S  px         
 
 Vector    6  Occ=1.000000D+00  E=-6.509472D-01
              MO Center= -3.4D-18,  1.8D-17,  2.7D-01, r^2= 9.8D-01
   Bfn.  Coefficient  Atom+Function         Bfn.  Coefficient  Atom+Function  
  ----- ------------  ---------------      ----- ------------  ---------------
     5      0.587085  1 S  s                  6      0.539959  1 S  s          
     4     -0.357085  1 S  s                  3     -0.203991  1 S  s          
    55      0.136016  2 H  s                 54      0.112942  2 H  s          
     2      0.094736  1 S  s                 38     -0.062279  1 S  dxx        
    41     -0.060531  1 S  dyy               15      0.054275  1 S  pz         
 
 Vector    7  Occ=1.000000D+00  E=-3.693116D-01
              MO Center= -4.2D-17, -2.1D-15,  9.9D-02, r^2= 1.5D+00
   Bfn.  Coefficient  Atom+Function         Bfn.  Coefficient  Atom+Function  
  ----- ------------  ---------------      ----- ------------  ---------------
     6      0.398382  1 S  s                 18     -0.366796  1 S  pz         
    55     -0.274209  2 H  s                  5      0.244190  1 S  s          
    15     -0.228552  1 S  pz                54     -0.158615  2 H  s          
    12      0.157099  1 S  pz                 4     -0.152328  1 S  s          
    21     -0.141004  1 S  pz                56     -0.132028  2 H  s          
 
 Vector    8  Occ=1.000000D+00  E=-2.326412D-01
              MO Center=  5.9D-16,  9.4D-16, -3.7D-02, r^2= 1.5D+00
   Bfn.  Coefficient  Atom+Function         Bfn.  Coefficient  Atom+Function  
  ----- ------------  ---------------      ----- ------------  ---------------
    17      0.485061  1 S  py                16      0.416359  1 S  px         
    20      0.229538  1 S  py                14      0.205558  1 S  py         
    19      0.197027  1 S  px                13      0.176442  1 S  px         
    11     -0.149459  1 S  py                10     -0.128289  1 S  px         
     8     -0.078899  1 S  py                 7     -0.067724  1 S  px         
 
 Vector    9  Occ=0.000000D+00  E=-2.062220D-01
              MO Center= -1.6D-15,  9.8D-16, -3.6D-02, r^2= 1.6D+00
   Bfn.  Coefficient  Atom+Function         Bfn.  Coefficient  Atom+Function  
  ----- ------------  ---------------      ----- ------------  ---------------
    16      0.466983  1 S  px                17     -0.400839  1 S  py         
    19      0.245361  1 S  px                20     -0.210608  1 S  py         
    13      0.202243  1 S  px                14     -0.173598  1 S  py         
    10     -0.146228  1 S  px                11      0.125517  1 S  py         
     7     -0.077693  1 S  px                 8      0.066689  1 S  py         
 
 Vector   10  Occ=0.000000D+00  E=-1.658541D-02
              MO Center=  5.4D-16,  5.8D-16,  1.0D+00, r^2= 7.4D+00
   Bfn.  Coefficient  Atom+Function         Bfn.  Coefficient  Atom+Function  
  ----- ------------  ---------------      ----- ------------  ---------------
    57      2.010376  2 H  s                 22     -1.051695  1 S  s          
    25     -0.727143  1 S  pz                18     -0.248406  1 S  pz         
     5     -0.240362  1 S  s                  6     -0.226643  1 S  s          
    43      0.143273  1 S  dzz               66      0.143769  2 H  pz         
     4      0.123705  1 S  s                 15     -0.113289  1 S  pz         
 
 Vector   11  Occ=0.000000D+00  E= 3.794187D-02
              MO Center=  1.1D-15, -3.6D-14,  1.3D-01, r^2= 6.2D+00
   Bfn.  Coefficient  Atom+Function         Bfn.  Coefficient  Atom+Function  
  ----- ------------  ---------------      ----- ------------  ---------------
    56      2.239607  2 H  s                 22     -1.579493  1 S  s          
    21     -1.363512  1 S  pz                 6     -0.752073  1 S  s          
    18     -0.723959  1 S  pz                55      0.286914  2 H  s          
    66     -0.268475  2 H  pz                25      0.240064  1 S  pz         
    37      0.137565  1 S  dzz               57     -0.134731  2 H  s          
 
 Vector   12  Occ=0.000000D+00  E= 4.445054D-02
              MO Center= -4.4D-15,  7.1D-15, -4.7D-01, r^2= 1.1D+01
   Bfn.  Coefficient  Atom+Function         Bfn.  Coefficient  Atom+Function  
  ----- ------------  ---------------      ----- ------------  ---------------
    25      1.279471  1 S  pz                22     -0.798741  1 S  s          
    21     -0.639005  1 S  pz                57      0.549429  2 H  s          
    56     -0.167763  2 H  s                  5      0.153888  1 S  s          
    18      0.142061  1 S  pz                41      0.136855  1 S  dyy        
    38      0.135005  1 S  dxx                6      0.113691  1 S  s          
 
 Vector   13  Occ=0.000000D+00  E= 5.224709D-02
              MO Center=  1.6D-14,  1.9D-14, -5.8D-02, r^2= 1.2D+01
   Bfn.  Coefficient  Atom+Function         Bfn.  Coefficient  Atom+Function  
  ----- ------------  ---------------      ----- ------------  ---------------
    24      1.301926  1 S  py                23      1.117632  1 S  px         
    20     -0.753894  1 S  py                19     -0.647179  1 S  px         
    14     -0.121688  1 S  py                13     -0.104463  1 S  px         
    52     -0.080032  1 S  fyzz              45     -0.073889  1 S  fxxy       
    50     -0.072882  1 S  fyyy              49     -0.068704  1 S  fxzz       
 
 Vector   14  Occ=0.000000D+00  E= 5.786412D-02
              MO Center= -1.4D-14,  1.2D-14, -5.7D-02, r^2= 1.2D+01
   Bfn.  Coefficient  Atom+Function         Bfn.  Coefficient  Atom+Function  
  ----- ------------  ---------------      ----- ------------  ---------------
    23      1.308425  1 S  px                24     -1.123207  1 S  py         
    19     -0.769349  1 S  px                20      0.660439  1 S  py         
    13     -0.124394  1 S  px                14      0.106785  1 S  py         
    49     -0.081800  1 S  fxzz              44     -0.072933  1 S  fxxx       
    47     -0.070240  1 S  fxyy              52      0.070221  1 S  fyzz       
 
 Vector   15  Occ=0.000000D+00  E= 1.063364D-01
              MO Center= -8.2D-15, -4.9D-15,  1.1D+00, r^2= 1.4D+01
   Bfn.  Coefficient  Atom+Function         Bfn.  Coefficient  Atom+Function  
  ----- ------------  ---------------      ----- ------------  ---------------
    22      6.736384  1 S  s                 57     -6.570533  2 H  s          
    25      3.601094  1 S  pz                21     -1.425437  1 S  pz         
    56      1.223913  2 H  s                  6     -0.775236  1 S  s          
    43     -0.510080  1 S  dzz               38     -0.408231  1 S  dxx        
    41     -0.410092  1 S  dyy                5     -0.388814  1 S  s          
 
 Vector   16  Occ=0.000000D+00  E= 1.793452D-01
              MO Center= -3.7D-16,  3.2D-17,  1.9D-01, r^2= 2.7D+00
   Bfn.  Coefficient  Atom+Function         Bfn.  Coefficient  Atom+Function  
  ----- ------------  ---------------      ----- ------------  ---------------
    42      0.827052  1 S  dyz               40      0.709928  1 S  dxz        
    65      0.278283  2 H  py                36      0.267805  1 S  dyz        
    64      0.238874  2 H  px                34      0.229879  1 S  dxz        
    17     -0.149855  1 S  py                16     -0.128635  1 S  px         
    20     -0.083193  1 S  py                30      0.080345  1 S  dyz        
 
 Vector   17  Occ=0.000000D+00  E= 1.853302D-01
              MO Center=  1.6D-15, -9.6D-17,  2.1D-01, r^2= 2.7D+00
   Bfn.  Coefficient  Atom+Function         Bfn.  Coefficient  Atom+Function  
  ----- ------------  ---------------      ----- ------------  ---------------
    40      0.809252  1 S  dxz               42     -0.694649  1 S  dyz        
    64      0.297461  2 H  px                34      0.258061  1 S  dxz        
    65     -0.255336  2 H  py                36     -0.221515  1 S  dyz        
    16     -0.159645  1 S  px                17      0.137035  1 S  py         
    19     -0.087352  1 S  px                28      0.079743  1 S  dxz        
 
 Vector   18  Occ=0.000000D+00  E= 2.234058D-01
              MO Center= -7.7D-16, -3.4D-15, -7.5D-02, r^2= 2.6D+00
   Bfn.  Coefficient  Atom+Function         Bfn.  Coefficient  Atom+Function  
  ----- ------------  ---------------      ----- ------------  ---------------
    38      0.751182  1 S  dxx               41     -0.751177  1 S  dyy        
    39      0.230258  1 S  dxy               32      0.173307  1 S  dxx        
    35     -0.173304  1 S  dyy               26      0.057481  1 S  dxx        
    29     -0.057479  1 S  dyy               33      0.053123  1 S  dxy        
 
 Vector   19  Occ=0.000000D+00  E= 2.268974D-01
              MO Center=  3.2D-15, -5.6D-15, -6.1D-02, r^2= 2.6D+00
   Bfn.  Coefficient  Atom+Function         Bfn.  Coefficient  Atom+Function  
  ----- ------------  ---------------      ----- ------------  ---------------
    39      1.495944  1 S  dxy               56      0.684955  2 H  s          
    33      0.338849  1 S  dxy                6     -0.255364  1 S  s          
    21     -0.255184  1 S  pz                22     -0.158709  1 S  s          
    18     -0.154058  1 S  pz                41      0.149825  1 S  dyy        
    43     -0.141111  1 S  dzz               27      0.114123  1 S  dxy        
 
 Vector   20  Occ=0.000000D+00  E= 2.583668D-01
              MO Center= -2.4D-15, -3.1D-14,  7.6D-01, r^2= 7.0D+00
   Bfn.  Coefficient  Atom+Function         Bfn.  Coefficient  Atom+Function  
  ----- ------------  ---------------      ----- ------------  ---------------
    56      6.102162  2 H  s                  6     -2.853346  1 S  s          
    21     -2.184788  1 S  pz                22     -1.933699  1 S  s          
    18     -1.479425  1 S  pz                43     -1.135690  1 S  dzz        
    66     -0.994253  2 H  pz                38      0.576806  1 S  dxx        
    41      0.550689  1 S  dyy               25     -0.437802  1 S  pz         
 
 Vector   21  Occ=0.000000D+00  E= 2.826558D-01
              MO Center= -3.7D-14, -2.5D-14, -1.2D+00, r^2= 7.7D+00
   Bfn.  Coefficient  Atom+Function         Bfn.  Coefficient  Atom+Function  
  ----- ------------  ---------------      ----- ------------  ---------------
    21      4.591848  1 S  pz                56     -3.184238  2 H  s          
    25     -2.753480  1 S  pz                 6      2.502936  1 S  s          
    57      1.536199  2 H  s                 66      0.985267  2 H  pz         
    22     -0.671927  1 S  s                 55     -0.633629  2 H  s          
    18     -0.628521  1 S  pz                43      0.526660  1 S  dzz        
 
 Vector   22  Occ=0.000000D+00  E= 3.049780D-01
              MO Center=  4.0D-14,  4.9D-14, -1.0D-01, r^2= 8.3D+00
   Bfn.  Coefficient  Atom+Function         Bfn.  Coefficient  Atom+Function  
  ----- ------------  ---------------      ----- ------------  ---------------
    20      2.316950  1 S  py                19      1.988893  1 S  px         
    17     -1.560717  1 S  py                24     -1.454698  1 S  py         
    16     -1.339738  1 S  px                23     -1.248726  1 S  px         
    45      0.367785  1 S  fxxy              50      0.369325  1 S  fyyy       
    52      0.362817  1 S  fyzz              44      0.317321  1 S  fxxx       
 
 Vector   23  Occ=0.000000D+00  E= 3.082559D-01
              MO Center= -3.7D-15,  6.0D-15, -1.0D-01, r^2= 8.2D+00
   Bfn.  Coefficient  Atom+Function         Bfn.  Coefficient  Atom+Function  
  ----- ------------  ---------------      ----- ------------  ---------------
    19      2.320545  1 S  px                20     -1.991980  1 S  py         
    16     -1.589162  1 S  px                23     -1.452979  1 S  px         
    17      1.364150  1 S  py                24      1.247253  1 S  py         
    47      0.381281  1 S  fxyy              44      0.377343  1 S  fxxx       
    49      0.368566  1 S  fxzz              45     -0.329497  1 S  fxxy       
 
 Vector   24  Occ=0.000000D+00  E= 4.310072D-01
              MO Center= -5.9D-15, -1.2D-15,  7.6D-01, r^2= 7.3D+00
   Bfn.  Coefficient  Atom+Function         Bfn.  Coefficient  Atom+Function  
  ----- ------------  ---------------      ----- ------------  ---------------
    22      5.194694  1 S  s                 56      4.675285  2 H  s          
    57     -4.566590  2 H  s                 21     -2.900522  1 S  pz         
    25      2.536210  1 S  pz                43     -2.238405  1 S  dzz        
    38     -2.081607  1 S  dxx               41     -2.082396  1 S  dyy        
    55     -0.704630  2 H  s                 66     -0.705270  2 H  pz         
 
 Vector   25  Occ=0.000000D+00  E= 4.737272D-01
              MO Center= -3.2D-14, -3.8D-14,  8.8D-01, r^2= 3.5D+00
   Bfn.  Coefficient  Atom+Function         Bfn.  Coefficient  Atom+Function  
  ----- ------------  ---------------      ----- ------------  ---------------
    42      1.637972  1 S  dyz               65     -1.445806  2 H  py         
    40      1.405974  1 S  dxz               64     -1.241025  2 H  px         
    20      0.800826  1 S  py                19      0.687399  1 S  px         
    17      0.458158  1 S  py                16      0.393267  1 S  px         
    24     -0.209592  1 S  py                23     -0.179906  1 S  px         
 
 Vector   26  Occ=0.000000D+00  E= 4.747442D-01
              MO Center=  5.3D-15, -4.7D-15,  8.6D-01, r^2= 3.5D+00
   Bfn.  Coefficient  Atom+Function         Bfn.  Coefficient  Atom+Function  
  ----- ------------  ---------------      ----- ------------  ---------------
    40      1.654186  1 S  dxz               64     -1.443155  2 H  px         
    42     -1.419892  1 S  dyz               65      1.238750  2 H  py         
    19      0.789104  1 S  px                20     -0.677338  1 S  py         
    16      0.473415  1 S  px                17     -0.406360  1 S  py         
    23     -0.201807  1 S  px                24      0.173224  1 S  py         
 
 Vector   27  Occ=0.000000D+00  E= 4.769034D-01
              MO Center=  3.2D-14,  5.1D-14,  6.9D-01, r^2= 3.8D+00
   Bfn.  Coefficient  Atom+Function         Bfn.  Coefficient  Atom+Function  
  ----- ------------  ---------------      ----- ------------  ---------------
     6      2.904526  1 S  s                 56     -1.928540  2 H  s          
    43     -1.661035  1 S  dzz               66      1.623258  2 H  pz         
    22      1.502018  1 S  s                 18      1.357437  1 S  pz         
    55      1.347912  2 H  s                 21     -0.980543  1 S  pz         
    25      0.969391  1 S  pz                57     -0.737911  2 H  s          
 
 Vector   28  Occ=0.000000D+00  E= 7.434255D-01
              MO Center= -9.9D-15, -7.3D-15,  2.1D-01, r^2= 6.0D+00
   Bfn.  Coefficient  Atom+Function         Bfn.  Coefficient  Atom+Function  
  ----- ------------  ---------------      ----- ------------  ---------------
    56     10.206350  2 H  s                  6     -8.802824  1 S  s          
    18     -5.761357  1 S  pz                21     -5.106151  1 S  pz         
    66     -4.498260  2 H  pz                43     -3.486711  1 S  dzz        
    55      3.451502  2 H  s                 57     -1.545242  2 H  s          
    25      1.292479  1 S  pz                46      1.178321  1 S  fxxz       
 
 Vector   29  Occ=0.000000D+00  E= 9.394826D-01
              MO Center=  2.7D-15,  2.1D-15, -1.2D-01, r^2= 1.6D+00
   Bfn.  Coefficient  Atom+Function         Bfn.  Coefficient  Atom+Function  
  ----- ------------  ---------------      ----- ------------  ---------------
    36      1.226985  1 S  dyz               42     -1.177258  1 S  dyz        
    34      1.053024  1 S  dxz               40     -1.010348  1 S  dxz        
    30      0.209781  1 S  dyz               28      0.180038  1 S  dxz        
    65      0.169225  2 H  py                62      0.165135  2 H  py         
    64      0.145232  2 H  px                61      0.141722  2 H  px         
 
 Vector   30  Occ=0.000000D+00  E= 9.424833D-01
              MO Center=  2.9D-15, -4.8D-15, -1.1D-01, r^2= 1.6D+00
   Bfn.  Coefficient  Atom+Function         Bfn.  Coefficient  Atom+Function  
  ----- ------------  ---------------      ----- ------------  ---------------
    34      1.225920  1 S  dxz               40     -1.167771  1 S  dxz        
[...]
    56     -2.394906  2 H  s                 55     -1.671420  2 H  s          
     6      1.640356  1 S  s                 66      1.566869  2 H  pz         
    63     -1.146137  2 H  pz                43      1.073225  1 S  dzz        
 
 Vector   54  Occ=0.000000D+00  E= 3.629839D+00
              MO Center= -5.6D-16,  3.8D-16,  8.5D-01, r^2= 1.1D+00
   Bfn.  Coefficient  Atom+Function         Bfn.  Coefficient  Atom+Function  
  ----- ------------  ---------------      ----- ------------  ---------------
    69      1.483145  2 H  dxz               49      1.469758  1 S  fxzz       
    71     -1.273047  2 H  dyz               52     -1.261558  1 S  fyzz       
    40      0.538225  1 S  dxz               28      0.486486  1 S  dxz        
    42     -0.461982  1 S  dyz               30     -0.417573  1 S  dyz        
    64     -0.376740  2 H  px                65      0.323372  2 H  py         
 
 Vector   55  Occ=0.000000D+00  E= 3.640183D+00
              MO Center= -1.8D-16, -2.0D-16,  8.5D-01, r^2= 1.1D+00
   Bfn.  Coefficient  Atom+Function         Bfn.  Coefficient  Atom+Function  
  ----- ------------  ---------------      ----- ------------  ---------------
    52      1.484072  1 S  fyzz              71      1.483206  2 H  dyz        
    49      1.273842  1 S  fxzz              69      1.273100  2 H  dxz        
    42      0.537203  1 S  dyz               30      0.484978  1 S  dyz        
    40      0.461105  1 S  dxz               28      0.416277  1 S  dxz        
    65     -0.375772  2 H  py                64     -0.322542  2 H  px         
 
 Vector   56  Occ=0.000000D+00  E= 3.833035D+00
              MO Center=  6.9D-15,  6.0D-16,  1.9D-01, r^2= 1.5D+00
   Bfn.  Coefficient  Atom+Function         Bfn.  Coefficient  Atom+Function  
  ----- ------------  ---------------      ----- ------------  ---------------
     5      7.957487  1 S  s                  6      7.386220  1 S  s          
    32     -4.503846  1 S  dxx               35     -4.500401  1 S  dyy        
    37     -4.357250  1 S  dzz               38     -2.097898  1 S  dxx        
    41     -2.099197  1 S  dyy                4     -2.083286  1 S  s          
    43     -2.039310  1 S  dzz               18      1.475324  1 S  pz         
 
 Vector   57  Occ=0.000000D+00  E= 4.209906D+00
              MO Center= -3.0D-16, -6.9D-16,  8.6D-01, r^2= 1.4D+00
   Bfn.  Coefficient  Atom+Function         Bfn.  Coefficient  Atom+Function  
  ----- ------------  ---------------      ----- ------------  ---------------
    55      4.808794  2 H  s                 18     -3.264590  1 S  pz         
    56      2.939950  2 H  s                  5      2.743727  1 S  s          
    37     -2.610344  1 S  dzz               43     -2.178856  1 S  dzz        
    66     -1.986126  2 H  pz                21     -1.910491  1 S  pz         
    32     -1.769791  1 S  dxx               35     -1.765926  1 S  dyy        
 
 Vector   58  Occ=0.000000D+00  E= 4.553281D+00
              MO Center= -8.2D-17,  3.5D-16, -7.3D-02, r^2= 4.5D-01
   Bfn.  Coefficient  Atom+Function         Bfn.  Coefficient  Atom+Function  
  ----- ------------  ---------------      ----- ------------  ---------------
    26      0.964509  1 S  dxx               29     -0.964422  1 S  dyy        
    32     -0.675507  1 S  dxx               35      0.675604  1 S  dyy        
    27      0.292673  1 S  dxy               38      0.213955  1 S  dxx        
    41     -0.213992  1 S  dyy               33     -0.205001  1 S  dxy        
    39      0.064933  1 S  dxy               67      0.049213  2 H  dxx        
 
 Vector   59  Occ=0.000000D+00  E= 4.554585D+00
              MO Center= -3.3D-16, -2.6D-17, -4.4D-02, r^2= 5.0D-01
   Bfn.  Coefficient  Atom+Function         Bfn.  Coefficient  Atom+Function  
  ----- ------------  ---------------      ----- ------------  ---------------
    27      1.904989  1 S  dxy               33     -1.335019  1 S  dxy        
    55      0.850355  2 H  s                 18     -0.526883  1 S  pz         
    39      0.422319  1 S  dxy                6     -0.302901  1 S  s          
    72     -0.280180  2 H  dzz               67     -0.248139  2 H  dxx        
    70     -0.233586  2 H  dyy               53      0.201116  1 S  fzzz       
 
 Vector   60  Occ=0.000000D+00  E= 4.579239D+00
              MO Center=  5.3D-17,  1.8D-16,  1.0D+00, r^2= 9.7D-01
   Bfn.  Coefficient  Atom+Function         Bfn.  Coefficient  Atom+Function  
  ----- ------------  ---------------      ----- ------------  ---------------
    55      4.932289  2 H  s                 18     -3.103713  1 S  pz         
     6     -2.510230  1 S  s                 72     -1.883600  2 H  dzz        
    67     -1.421985  2 H  dxx               70     -1.425121  2 H  dyy        
    53      1.386978  1 S  fzzz              66     -0.967748  2 H  pz         
    46      0.942318  1 S  fxxz              51      0.944029  1 S  fyyz       
 
 Vector   61  Occ=0.000000D+00  E= 4.810407D+00
              MO Center=  4.1D-16, -5.6D-18,  1.2D-01, r^2= 6.4D-01
   Bfn.  Coefficient  Atom+Function         Bfn.  Coefficient  Atom+Function  
  ----- ------------  ---------------      ----- ------------  ---------------
    28      1.413030  1 S  dxz               34     -1.261006  1 S  dxz        
    30     -1.212888  1 S  dyz               36      1.082396  1 S  dyz        
    69     -0.717979  2 H  dxz               49     -0.712543  1 S  fxzz       
    71      0.616284  2 H  dyz               52      0.611621  1 S  fyzz       
    40      0.236775  1 S  dxz               61      0.220684  2 H  px         
 
 Vector   62  Occ=0.000000D+00  E= 4.824793D+00
              MO Center= -1.2D-16, -8.7D-17,  1.2D-01, r^2= 6.4D-01
   Bfn.  Coefficient  Atom+Function         Bfn.  Coefficient  Atom+Function  
  ----- ------------  ---------------      ----- ------------  ---------------
    30      1.413965  1 S  dyz               36     -1.258474  1 S  dyz        
    28      1.213690  1 S  dxz               34     -1.080223  1 S  dxz        
    71     -0.716216  2 H  dyz               52     -0.709127  1 S  fyzz       
    69     -0.614771  2 H  dxz               49     -0.608683  1 S  fxzz       
    42      0.236967  1 S  dyz               62      0.220001  2 H  py         
 
 Vector   63  Occ=0.000000D+00  E= 5.745942D+00
              MO Center= -7.2D-17,  4.1D-17,  1.3D-01, r^2= 8.0D-01
   Bfn.  Coefficient  Atom+Function         Bfn.  Coefficient  Atom+Function  
  ----- ------------  ---------------      ----- ------------  ---------------
    37      3.660018  1 S  dzz                5     -3.075385  1 S  s          
    53      2.382996  1 S  fzzz              63      2.066357  2 H  pz         
     6      1.818299  1 S  s                 72     -1.651083  2 H  dzz        
    55     -1.058698  2 H  s                 56     -0.908490  2 H  s          
    31     -0.892984  1 S  dzz               26      0.752432  1 S  dxx        
 
 Vector   64  Occ=0.000000D+00  E= 8.656933D+00
              MO Center=  2.3D-17,  1.3D-17,  1.3D+00, r^2= 2.9D-01
   Bfn.  Coefficient  Atom+Function         Bfn.  Coefficient  Atom+Function  
  ----- ------------  ---------------      ----- ------------  ---------------
    58      0.974467  2 H  px                59     -0.836437  2 H  py         
    61     -0.733155  2 H  px                62      0.629306  2 H  py         
    49      0.287343  1 S  fxzz              64      0.278179  2 H  px         
    52     -0.246642  1 S  fyzz              65     -0.238776  2 H  py         
    34      0.222800  1 S  dxz               36     -0.191241  1 S  dyz        
 
 Vector   65  Occ=0.000000D+00  E= 8.665280D+00
              MO Center=  9.1D-18, -7.6D-17,  1.3D+00, r^2= 2.9D-01
   Bfn.  Coefficient  Atom+Function         Bfn.  Coefficient  Atom+Function  
  ----- ------------  ---------------      ----- ------------  ---------------
    59      0.974496  2 H  py                58      0.836461  2 H  px         
    62     -0.734132  2 H  py                61     -0.630144  2 H  px         
    52      0.289140  1 S  fyzz              65      0.278258  2 H  py         
    49      0.248184  1 S  fxzz              64      0.238844  2 H  px         
    36      0.223917  1 S  dyz               34      0.192200  1 S  dxz        
 
 Vector   66  Occ=0.000000D+00  E= 9.451145D+00
              MO Center= -2.0D-17, -4.2D-17,  1.1D+00, r^2= 5.1D-01
   Bfn.  Coefficient  Atom+Function         Bfn.  Coefficient  Atom+Function  
  ----- ------------  ---------------      ----- ------------  ---------------
     5      4.831943  1 S  s                 37     -2.869665  1 S  dzz        
    63     -2.250553  2 H  pz                55      1.483702  2 H  s          
    53     -1.417221  1 S  fzzz              60      1.389552  2 H  pz         
    32     -1.195117  1 S  dxx               35     -1.195189  1 S  dyy        
     6     -0.998005  1 S  s                 72      0.843207  2 H  dzz        
 
 Vector   67  Occ=0.000000D+00  E= 1.016239D+01
              MO Center=  3.8D-16, -4.4D-16, -2.7D-02, r^2= 6.9D-01
   Bfn.  Coefficient  Atom+Function         Bfn.  Coefficient  Atom+Function  
  ----- ------------  ---------------      ----- ------------  ---------------
     5     18.810616  1 S  s                 32     -6.333100  1 S  dxx        
    35     -6.333460  1 S  dyy               37     -6.170034  1 S  dzz        
    26     -3.338207  1 S  dxx               29     -3.338205  1 S  dyy        
    31     -3.349277  1 S  dzz                3     -1.932710  1 S  s          
     6      1.318451  1 S  s                 43     -0.803600  1 S  dzz        
 
 Vector   68  Occ=0.000000D+00  E= 1.844629D+01
              MO Center=  2.0D-16, -1.6D-16, -8.0D-02, r^2= 2.1D-01
   Bfn.  Coefficient  Atom+Function         Bfn.  Coefficient  Atom+Function  
  ----- ------------  ---------------      ----- ------------  ---------------
    16      1.428939  1 S  px                17     -1.226478  1 S  py         
    10     -1.157575  1 S  px                49     -1.009154  1 S  fxzz       
    11      0.993563  1 S  py                44     -0.988228  1 S  fxxx       
    47     -0.987827  1 S  fxyy               7      0.932384  1 S  px         
    52      0.866171  1 S  fyzz              45      0.847641  1 S  fxxy       
 
 Vector   69  Occ=0.000000D+00  E= 1.845505D+01
              MO Center= -1.0D-16, -1.1D-16, -8.0D-02, r^2= 2.2D-01
   Bfn.  Coefficient  Atom+Function         Bfn.  Coefficient  Atom+Function  
  ----- ------------  ---------------      ----- ------------  ---------------
    17      1.431624  1 S  py                16      1.228782  1 S  px         
    11     -1.157976  1 S  py                52     -1.010724  1 S  fyzz       
    10     -0.993907  1 S  px                45     -0.990413  1 S  fxxy       
    50     -0.989855  1 S  fyyy               8      0.932190  1 S  py         
    49     -0.867518  1 S  fxzz              44     -0.849502  1 S  fxxx       
 
 Vector   70  Occ=0.000000D+00  E= 1.865099D+01
              MO Center= -3.7D-18,  7.0D-18, -6.6D-02, r^2= 2.1D-01
   Bfn.  Coefficient  Atom+Function         Bfn.  Coefficient  Atom+Function  
  ----- ------------  ---------------      ----- ------------  ---------------
    18      2.781462  1 S  pz                46     -1.585213  1 S  fxxz       
    51     -1.585369  1 S  fyyz              12     -1.546909  1 S  pz         
    53     -1.409230  1 S  fzzz               9      1.229489  1 S  pz         
     6      0.871879  1 S  s                 55     -0.853973  2 H  s          
    56     -0.779352  2 H  s                 15      0.651922  1 S  pz         
 
 Vector   71  Occ=0.000000D+00  E= 2.488747D+01
              MO Center=  3.8D-17, -3.6D-17, -7.8D-02, r^2= 2.6D-01
   Bfn.  Coefficient  Atom+Function         Bfn.  Coefficient  Atom+Function  
  ----- ------------  ---------------      ----- ------------  ---------------
     5     16.382249  1 S  s                  4     15.742803  1 S  s          
     3    -12.094660  1 S  s                 26     -6.862448  1 S  dxx        
    29     -6.862399  1 S  dyy               31     -6.847146  1 S  dzz        
    37     -4.981105  1 S  dzz               32     -4.925717  1 S  dxx        
    35     -4.925736  1 S  dyy                2      0.664576  1 S  s          
 
 Vector   72  Occ=0.000000D+00  E= 2.191990D+02
              MO Center=  7.3D-19, -2.3D-18, -7.9D-02, r^2= 3.3D-02
   Bfn.  Coefficient  Atom+Function         Bfn.  Coefficient  Atom+Function  
  ----- ------------  ---------------      ----- ------------  ---------------
     4      7.659207  1 S  s                  3     -6.351357  1 S  s          
     5      5.453634  1 S  s                 26     -2.787753  1 S  dxx        
    29     -2.787751  1 S  dyy               31     -2.781708  1 S  dzz        
     2      2.292616  1 S  s                 37     -1.681181  1 S  dzz        
    32     -1.654816  1 S  dxx               35     -1.654815  1 S  dyy        
 

   alpha - beta orbital overlaps 
   ----------------------------- 


   alpha      1      2      3      4      5      6      7      8      9     10
    beta      1      2      4      3      5      6      7      9      8     10
 overlap   1.000  1.000  1.000  1.000  1.000  0.997  0.999  0.997  1.000  0.995


   alpha     11     12     13     14     15     16     17     18     19     20
    beta     11     12     14     13     15     17     16     18     19     20
 overlap   0.988  0.992  0.997  1.000  0.999  0.999  1.000  1.000  0.961  0.966


   alpha     21     22     23     24     25     26     27     28     29     30
    beta     21     23     22     24     26     27     25     28     30     33
 overlap   1.000  0.998  1.000  0.999  0.999  0.999  1.000  0.999  0.999  0.944


   alpha     31     32     33     34     35     36     37     38     39     40
    beta     32     29     31     35     34     36     37     38     40     41
 overlap   1.000  1.000  0.946  0.999  1.000  0.999  0.999  0.973  1.000  0.998


   alpha     41     42     43     44     45     46     47     48     49     50
    beta     39     43     42     44     45     46     47     48     49     50
 overlap   0.937  0.974  0.937  0.999  0.999  1.000  1.000  1.000  1.000  1.000


   alpha     51     52     53     54     55     56     57     58     59     60
    beta     52     51     53     54     55     56     57     59     58     60
 overlap   0.981  1.000  0.981  1.000  1.000  1.000  0.999  0.969  1.000  0.968


   alpha     61     62     63     64     65     66     67     68     69     70
    beta     61     62     63     64     65     66     67     68     69     70
 overlap   1.000  1.000  1.000  1.000  1.000  1.000  1.000  1.000  1.000  1.000


   alpha     71     72
    beta     71     72
 overlap   1.000  1.000

     --------------------------
     Expectation value of S2:  
     --------------------------
      <S2> =      0.7550 (Exact =     0.7500)
 

 center of mass
 --------------
 x =   0.00000000 y =   0.00000000 z =  -0.07158364

 moments of inertia (a.u.)
 ------------------
           6.266766490184           0.000000000000           0.000000000000
           0.000000000000           6.266766490184           0.000000000000
           0.000000000000           0.000000000000           0.000000000000
 
     Multipole analysis of the density
     ---------------------------------
 
     L   x y z        total         alpha         beta         nuclear
     -   - - -        -----         -----         ----         -------
     0   0 0 0     -0.000000     -9.000000     -8.000000     17.000000
 
     1   1 0 0      0.000000      0.000000     -0.000000      0.000000
     1   0 1 0      0.000000      0.000000      0.000000      0.000000
     1   0 0 1      0.301480      0.176158      0.125321      0.000000
 
     2   2 0 0    -10.538916     -6.337704     -4.201212      0.000000
     2   1 1 0     -1.047506      0.051611     -1.099117      0.000000
     2   1 0 1      0.000000      0.000000      0.000000      0.000000
     2   0 2 0    -10.860131     -6.321878     -4.538252      0.000000
     2   0 1 1     -0.000000     -0.000000     -0.000000      0.000000
     2   0 0 2     -8.995762     -7.902071     -7.130507      6.036816
 

 Parallel integral file used      28 records with       0 large values


 Task  times  cpu:        1.6s     wall:        2.3s
 
 
                                NWChem Input Module
                                -------------------
 
 
 Summary of allocated global arrays
-----------------------------------
  No active global arrays



                         GA Statistics for process    0
                         ------------------------------

       create   destroy   get      put      acc     scatter   gather  read&inc
calls:  283      283     1242      873      244        0        0       95     
number of processes/call 2.55e+00 1.53e+00 4.88e+00 0.00e+00 0.00e+00
bytes total:             1.88e+07 5.11e+06 7.57e+06 0.00e+00 0.00e+00 7.60e+02
bytes remote:            7.32e+06 7.43e+05 3.96e+06 0.00e+00 0.00e+00 0.00e+00
Max memory consumed for GA by this process: 1536680 bytes
 
MA_summarize_allocated_blocks: starting scan ...
MA_summarize_allocated_blocks: scan completed: 0 heap blocks, 0 stack blocks
MA usage statistics:

	allocation statistics:
					      heap	     stack
					      ----	     -----
	current number of blocks	         0	         0
	maximum number of blocks	        21	        53
	current total bytes		         0	         0
	maximum total bytes		   4515184	  22514424
	maximum total K-bytes		      4516	     22515
	maximum total M-bytes		         5	        23
 
 
                                     CITATION
                                     --------
                Please cite the following reference when publishing
                           results obtained with NWChem:
 
                 M. Valiev, E.J. Bylaska, N. Govind, K. Kowalski,
              T.P. Straatsma, H.J.J. van Dam, D. Wang, J. Nieplocha,
                        E. Apra, T.L. Windus, W.A. de Jong
                 "NWChem: a comprehensive and scalable open-source
                  solution for large scale molecular simulations"
                      Comput. Phys. Commun. 181, 1477 (2010)
                           doi:10.1016/j.cpc.2010.04.018
 
                                      AUTHORS
                                      -------
          E. Apra, E. J. Bylaska, W. A. de Jong, N. Govind, K. Kowalski,
       T. P. Straatsma, M. Valiev, H. J. J. van Dam, D. Wang, T. L. Windus,
        J. Hammond, J. Autschbach, K. Bhaskaran-Nair, J. Brabec, K. Lopata,
    S. A. Fischer, S. Krishnamoorthy, M. Jacquelin, W. Ma, M. Klemm, O. Villa,
      Y. Chen, V. Anisimov, F. Aquino, S. Hirata, M. T. Hackler, V. Konjkov,
            D. Mejia-Rodriguez, T. Risthaus, M. Malagoli, A. Marenich,
   A. Otero-de-la-Roza, J. Mullin, P. Nichols, R. Peverati, J. Pittner, Y. Zhao,
        P.-D. Fan, A. Fonari, M. J. Williamson, R. J. Harrison, J. R. Rehr,
      M. Dupuis, D. Silverstein, D. M. A. Smith, J. Nieplocha, V. Tipparaju,
    M. Krishnan, B. E. Van Kuiken, A. Vazquez-Mayagoitia, L. Jensen, M. Swart,
      Q. Wu, T. Van Voorhis, A. A. Auer, M. Nooijen, L. D. Crosby, E. Brown,
      G. Cisneros, G. I. Fann, H. Fruchtl, J. Garza, K. Hirao, R. A. Kendall,
      J. A. Nichols, K. Tsemekhman, K. Wolinski, J. Anchell, D. E. Bernholdt,
      P. Borowski, T. Clark, D. Clerc, H. Dachsel, M. J. O. Deegan, K. Dyall,
    D. Elwood, E. Glendening, M. Gutowski, A. C. Hess, J. Jaffe, B. G. Johnson,
     J. Ju, R. Kobayashi, R. Kutteh, Z. Lin, R. Littlefield, X. Long, B. Meng,
      T. Nakajima, S. Niu, L. Pollack, M. Rosing, K. Glaesemann, G. Sandrone,
      M. Stave, H. Taylor, G. Thomas, J. H. van Lenthe, A. T. Wong, Z. Zhang.

 Total times  cpu:        1.7s     wall:        2.6s
