 argument  1 = /storage/home/rabeet/work/nwc/bh6/nwtpss/TS1.nw
  NWChem w/ OpenMP: maximum threads =  1
                                         
                                         
 
 
              Northwest Computational Chemistry Package (NWChem) 6.8
              ------------------------------------------------------
 
 
                    Environmental Molecular Sciences Laboratory
                       Pacific Northwest National Laboratory
                                Richland, WA 99352
 
                              Copyright (c) 1994-2018
                       Pacific Northwest National Laboratory
                            Battelle Memorial Institute
 
             NWChem is an open-source computational chemistry package
                        distributed under the terms of the
                      Educational Community License (ECL) 2.0
             A copy of the license is included with this distribution
                              in the LICENSE.TXT file
 
                                  ACKNOWLEDGMENT
                                  --------------

            This software and its documentation were developed at the
            EMSL at Pacific Northwest National Laboratory, a multiprogram
            national laboratory, operated for the U.S. Department of Energy
            by Battelle under Contract Number DE-AC05-76RL01830. Support
            for this work was provided by the Department of Energy Office
            of Biological and Environmental Research, Office of Basic
            Energy Sciences, and the Office of Advanced Scientific Computing.


           Job information
           ---------------

    hostname        = r8n4.niserhpc.org
    program         = /home/rabeet/nwchem-6.8/bin/LINUX64/nwchem
    date            = Sun Oct 27 08:44:23 2019

    compiled        = Fri_Jun_28_18:24:12_2019
    source          = /home/rabeet/nwchem-6.8
    nwchem branch   = Development
    nwchem revision = N/A
    ga revision     = 5.6.5
    use scalapack   = T
    input           = /storage/home/rabeet/work/nwc/bh6/nwtpss/TS1.nw
    prefix          = TS1.
    data base       = ./TS1.db
    status          = startup
    nproc           =       16
    time left       =     -1s



           Memory information
           ------------------

    heap     =   13107198 doubles =    100.0 Mbytes
    stack    =   13107195 doubles =    100.0 Mbytes
    global   =   26214400 doubles =    200.0 Mbytes (distinct from heap & stack)
    total    =   52428793 doubles =    400.0 Mbytes
    verify   = yes
    hardfail = no 


           Directory information
           ---------------------
 
  0 permanent = .
  0 scratch   = .
 
 
 
 
                                NWChem Input Module
                                -------------------
 
 

 Scaling coordinates for geometry "geometry" by  1.889725989
 (inverse scale =  0.529177249)


          ------
          auto-z
          ------
  autoz: The atoms group into disjoint clusters
 cluster   1:    1    3    4    5    6 
 cluster   2:    2    7 
 Connecting clusters   1   2 via atoms    3    2 r = 1.28
  autoz: regenerating connections with new bonds
  no constraints, skipping   0.000000000000000E+000
  no constraints, skipping   0.000000000000000E+000
 
 
                             Geometry "geometry" -> ""
                             -------------------------
 
 Output coordinates in angstroms (scale by  1.889725989 to convert to a.u.)
 
  No.       Tag          Charge          X              Y              Z
 ---- ---------------- ---------- -------------- -------------- --------------
    1 C                    6.0000    -1.21149158     0.00796789     0.00041000
    2 O                    8.0000     1.29396842    -0.10869211     0.00013000
    3 H                    1.0000     0.00947842    -0.11802211     0.00280000
    4 H                    1.0000    -1.52553158    -0.23325211     1.01007000
    5 H                    1.0000    -1.43067158     1.03322789    -0.27808000
    6 H                    1.0000    -1.55271158    -0.71011211    -0.73770000
    7 H                    1.0000     1.41663842     0.84988789    -0.00059000
 
      Atomic Mass 
      ----------- 
 
      C                 12.000000
      O                 15.994910
      H                  1.007825
 

 Effective nuclear repulsion energy (a.u.)      37.1188244386

            Nuclear Dipole moment (a.u.) 
            ----------------------------
        X                 Y               Z
 ---------------- ---------------- ----------------
    -0.0000000000    -0.0000000000    -0.0000000000
 


                                Z-matrix (autoz)
                                -------- 

 Units are Angstrom for bonds and degrees for angles
 
      Type          Name      I     J     K     L     M      Value
      ----------- --------  ----- ----- ----- ----- ----- ----------
    1 Stretch                  1     3                       1.22746
    2 Stretch                  1     4                       1.08454
    3 Stretch                  1     5                       1.08478
    4 Stretch                  1     6                       1.08484
    5 Stretch                  2     3                       1.28453
    6 Stretch                  2     7                       0.96640
    7 Bend                     1     3     2               173.68821
    8 Bend                     3     2     7                97.70877
    9 Bend                     3     1     4               105.27125
   10 Bend                     3     1     5               107.36711
   11 Bend                     3     1     6               104.25607
   12 Bend                     4     1     5               112.99850
   13 Bend                     4     1     6               113.27294
   14 Bend                     5     1     6               112.79152
   15 Torsion                  1     3     2     7           2.06499
   16 Torsion                  2     3     1     4        -107.17133
   17 Torsion                  2     3     1     5          13.47543
   18 Torsion                  2     3     1     6         133.35925
 
 
            XYZ format geometry
            -------------------
     7
 geometry
 C                    -1.21149158     0.00796789     0.00041000
 O                     1.29396842    -0.10869211     0.00013000
 H                     0.00947842    -0.11802211     0.00280000
 H                    -1.52553158    -0.23325211     1.01007000
 H                    -1.43067158     1.03322789    -0.27808000
 H                    -1.55271158    -0.71011211    -0.73770000
 H                     1.41663842     0.84988789    -0.00059000
 
 ==============================================================================
                                internuclear distances
 ------------------------------------------------------------------------------
       center one      |      center two      | atomic units |  angstroms
 ------------------------------------------------------------------------------
    4 H                |   1 C                |     2.04948  |     1.08454
    5 H                |   1 C                |     2.04994  |     1.08478
    6 H                |   1 C                |     2.05005  |     1.08484
    7 H                |   2 O                |     1.82623  |     0.96640
 ------------------------------------------------------------------------------
                         number of included internuclear distances:          4
 ==============================================================================



 ==============================================================================
                                 internuclear angles
 ------------------------------------------------------------------------------
        center 1       |       center 2       |       center 3       |  degrees
 ------------------------------------------------------------------------------
    4 H                |   1 C                |   5 H                |   113.00
    4 H                |   1 C                |   6 H                |   113.27
    5 H                |   1 C                |   6 H                |   112.79
 ------------------------------------------------------------------------------
                            number of included internuclear angles:          3
 ==============================================================================





 Summary of "ao basis" -> "" (cartesian)
 ------------------------------------------------------------------------------
       Tag                 Description            Shells   Functions and Types
 ---------------- ------------------------------  ------  ---------------------
 *                     6-311++G(3df,3pd)              on all atoms 


 
                                 NWChem DFT Module
                                 -----------------
 
 
                      Basis "ao basis" -> "ao basis" (cartesian)
                      -----
  C (Carbon)
  ----------
            Exponent  Coefficients 
       -------------- ---------------------------------------------------------
  1 S  4.56324000E+03  0.001967
  1 S  6.82024000E+02  0.015231
  1 S  1.54973000E+02  0.076127
  1 S  4.44553000E+01  0.260801
  1 S  1.30290000E+01  0.616462
  1 S  1.82773000E+00  0.221006
 
  2 S  2.09642000E+01  0.114660
  2 S  4.80331000E+00  0.919999
  2 S  1.45933000E+00 -0.003031
 
  3 P  2.09642000E+01  0.040249
  3 P  4.80331000E+00  0.237594
  3 P  1.45933000E+00  0.815854
 
  4 S  4.83456000E-01  1.000000
 
  5 P  4.83456000E-01  1.000000
 
  6 S  1.45585000E-01  1.000000
 
  7 P  1.45585000E-01  1.000000
 
  8 S  4.38000000E-02  1.000000
 
  9 P  4.38000000E-02  1.000000
 
 10 D  2.50400000E+00  1.000000
 
 11 D  6.26000000E-01  1.000000
 
 12 D  1.56500000E-01  1.000000
 
 13 F  8.00000000E-01  1.000000
 
  O (Oxygen)
  ----------
            Exponent  Coefficients 
       -------------- ---------------------------------------------------------
  1 S  8.58850000E+03  0.001895
  1 S  1.29723000E+03  0.014386
  1 S  2.99296000E+02  0.070732
  1 S  8.73771000E+01  0.240001
  1 S  2.56789000E+01  0.594797
  1 S  3.74004000E+00  0.280802
 
  2 S  4.21175000E+01  0.113889
  2 S  9.62837000E+00  0.920811
  2 S  2.85332000E+00 -0.003274
 
  3 P  4.21175000E+01  0.036511
  3 P  9.62837000E+00  0.237153
  3 P  2.85332000E+00  0.819702
 
  4 S  9.05661000E-01  1.000000
 
  5 P  9.05661000E-01  1.000000
 
  6 S  2.55611000E-01  1.000000
 
  7 P  2.55611000E-01  1.000000
 
  8 S  8.45000000E-02  1.000000
 
  9 P  8.45000000E-02  1.000000
 
 10 D  5.16000000E+00  1.000000
 
 11 D  1.29200000E+00  1.000000
 
 12 D  3.22500000E-01  1.000000
 
 13 F  1.40000000E+00  1.000000
 
  H (Hydrogen)
  ------------
            Exponent  Coefficients 
       -------------- ---------------------------------------------------------
  1 S  3.38650000E+01  0.025494
  1 S  5.09479000E+00  0.190373
  1 S  1.15879000E+00  0.852161
 
  2 S  3.25840000E-01  1.000000
 
  3 S  1.02741000E-01  1.000000
 
  4 S  3.60000000E-02  1.000000
 
  5 P  3.00000000E+00  1.000000
 
  6 P  7.50000000E-01  1.000000
 
  7 P  1.87500000E-01  1.000000
 
  8 D  1.00000000E+00  1.000000
 


 Summary of "ao basis" -> "ao basis" (cartesian)
 ------------------------------------------------------------------------------
       Tag                 Description            Shells   Functions and Types
 ---------------- ------------------------------  ------  ---------------------
 C                     6-311++G(3df,3pd)            13       45   5s4p3d1f
 O                     6-311++G(3df,3pd)            13       45   5s4p3d1f
 H                     6-311++G(3df,3pd)             8       19   4s3p1d




 Summary of "ao basis" -> "ao basis" (cartesian)
 ------------------------------------------------------------------------------
       Tag                 Description            Shells   Functions and Types
 ---------------- ------------------------------  ------  ---------------------
 C                     6-311++G(3df,3pd)            13       45   5s4p3d1f
 O                     6-311++G(3df,3pd)            13       45   5s4p3d1f
 H                     6-311++G(3df,3pd)             8       19   4s3p1d


  Caching 1-el integrals 
 
            General Information
            -------------------
          SCF calculation type: DFT
          Wavefunction type:  spin polarized.
          No. of atoms     :     7
          No. of electrons :    19
           Alpha electrons :    10
            Beta electrons :     9
          Charge           :     0
          Spin multiplicity:     2
          Use of symmetry is: off; symmetry adaption is: off
          Maximum number of iterations: ***
          AO basis - number of functions:   185
                     number of shells:    66
          Convergence on energy requested:  1.00D-06
          Convergence on density requested:  1.00D-05
          Convergence on gradient requested:  5.00D-04
 
              XC Information
              --------------
                  TPSS metaGGA Exchange Functional  1.000          
             TPSS03 metaGGA Correlation Functional  1.000          
 
             Grid Information
             ----------------
          Grid used for XC integration:  medium    
          Radial quadrature: Mura-Knowles        
          Angular quadrature: Lebedev. 
          Tag              B.-S. Rad. Rad. Pts. Rad. Cut. Ang. Pts.
          ---              ---------- --------- --------- ---------
          C                   0.70       49          13.0       434
          O                   0.60       49          12.0       434
          H                   0.35       45          13.0       434
          Grid pruning is: on 
          Number of quadrature shells:   323
          Spatial weights used:  Erf1
 
          Convergence Information
          -----------------------
          Convergence aids based upon iterative change in 
          total energy or number of iterations. 
          Levelshifting, if invoked, occurs when the 
          HOMO/LUMO gap drops below (HL_TOL):  1.00D-02
          DIIS, if invoked, will attempt to extrapolate 
          using up to (NFOCK): 10 stored Fock matrices.

                    Damping( 0%)  Levelshifting(0.5)       DIIS
                  --------------- ------------------- ---------------
          dE  on:    start            ASAP                start   
          dE off:    2 iters        *** iters           *** iters 

 
      Screening Tolerance Information
      -------------------------------
          Density screening/tol_rho:  1.00D-10
          AO Gaussian exp screening on grid/accAOfunc:  14
          CD Gaussian exp screening on grid/accCDfunc:  20
          XC Gaussian exp screening on grid/accXCfunc:  20
          Schwarz screening/accCoul:  1.00D-08

 
      Superposition of Atomic Density Guess
      -------------------------------------
 
 Sum of atomic energies:        -114.94599442
 
      Non-variational initial energy
      ------------------------------

 Total energy =    -115.526908
 1-e energy   =    -228.864568
 2-e energy   =      76.218836
 HOMO         =      -0.297576
 LUMO         =       0.022388
 
   Time after variat. SCF:      0.7
   Time prior to 1st pass:      0.7

 Integral file          = ./TS1.aoints.00
 Record size in doubles =    65536    No. of integs per rec  =    43688
 Max. records in memory =      287    Max. records in file   =  8904037
 No. of bits per label  =        8    No. of bits per value  =       64


 #quartets = 2.157D+06 #integrals = 1.032D+08 #direct =  0.0% #cached =100.0%


File balance: exchanges=    60  moved=   258  time=   0.0


 Grid_pts file          = ./TS1.gridpts.00
 Record size in doubles =  12289        No. of grid_pts per rec  =   3070
 Max. records in memory =      5        Max. recs in file   =  47484218


           Memory utilization after 1st SCF pass: 
           Heap Space remaining (MW):        0.00                  56
          Stack Space remaining (MW):       13.11            13105476

   convergence    iter        energy       DeltaE   RMS-Dens  Diis-err    time
 ---------------- ----- ----------------- --------- --------- ---------  ------
 d= 0,ls=0.0,diis     1   -116.2461546967 -1.53D+02  2.54D-03  1.51D-01     6.2
                                                     3.04D-03  1.64D-01
 d= 0,ls=0.5,diis     2   -116.0625965767  1.84D-01  9.00D-04  6.16D-01     6.8
                                                     8.07D-04  4.98D-01
 d= 0,ls=0.5,diis     3   -116.2556805891 -1.93D-01  6.05D-04  1.05D-01     7.4
                                                     5.75D-04  9.21D-02
 d= 0,ls=0.5,diis     4   -116.3014574577 -4.58D-02  3.28D-04  1.54D-02     8.0
                                                     3.60D-04  1.65D-02
 d= 0,ls=0.5,diis     5   -116.3102771797 -8.82D-03  1.93D-04  2.04D-03     8.8
                                                     2.33D-04  3.45D-03
  Resetting Diis
 d= 0,ls=0.5,diis     6   -116.3123480492 -2.07D-03  1.21D-04  4.60D-04     9.5
                                                     1.42D-04  1.09D-03
 d= 0,ls=0.5,diis     7   -116.3130332139 -6.85D-04  7.90D-05  1.57D-04    10.1
                                                     1.11D-04  5.12D-04
 d= 0,ls=0.5,diis     8   -116.3133595670 -3.26D-04  5.54D-05  4.02D-04    10.7
                                                     6.35D-05  3.09D-04
 d= 0,ls=0.5,diis     9   -116.3135257159 -1.66D-04  3.89D-05  1.74D-04    11.4
                                                     3.72D-05  1.10D-04
 d= 0,ls=0.5,diis    10   -116.3136192761 -9.36D-05  2.84D-05  4.05D-05    12.0
                                                     2.73D-05  2.97D-05
 d= 0,ls=0.5,diis    11   -116.3136591343 -3.99D-05  1.72D-05  3.52D-06    12.7
                                                     1.59D-05  1.10D-05
 d= 0,ls=0.5,diis    12   -116.3136741260 -1.50D-05  1.15D-05  1.32D-06    13.3
                                                     1.17D-05  8.90D-06
 d= 0,ls=0.5,diis    13   -116.3136816712 -7.55D-06  6.99D-06  2.97D-06    13.9
                                                     8.12D-06  7.22D-06
 d= 0,ls=0.5,diis    14   -116.3136860817 -4.41D-06  4.82D-06  2.53D-06    14.6
                                                     5.98D-06  4.80D-06
 d= 0,ls=0.5,diis    15   -116.3136886871 -2.61D-06  3.16D-06  1.75D-06    15.2
                                                     4.29D-06  2.87D-06
 d= 0,ls=0.5,diis    16   -116.3136901741 -1.49D-06  2.07D-06  1.09D-06    15.9
                                                     3.15D-06  1.67D-06
 d= 0,ls=0.5,diis    17   -116.3136910220 -8.48D-07  1.42D-06  6.53D-07    16.5
                                                     2.38D-06  9.58D-07


         Total DFT energy =     -116.313691525188
      One electron energy =     -231.166286089854
           Coulomb energy =       93.563854315572
          Exchange energy =      -15.233279244319
       Correlation energy =       -0.596804945211
 Nuclear repulsion energy =       37.118824438624

 Numeric. integr. density =       19.000000303960

     Total iterative time =     16.3s


 
                    DFT Final Alpha Molecular Orbital Analysis
                    ------------------------------------------
 
 Vector    1  Occ=1.000000D+00  E=-1.890305D+01
              MO Center=  1.3D+00, -1.1D-01,  1.3D-04, r^2= 1.5D-02
   Bfn.  Coefficient  Atom+Function         Bfn.  Coefficient  Atom+Function  
  ----- ------------  ---------------      ----- ------------  ---------------
    46      0.551591  2 O  s                 47      0.470286  2 O  s          
 
 Vector    2  Occ=1.000000D+00  E=-1.000712D+01
              MO Center= -1.2D+00,  8.0D-03,  4.1D-04, r^2= 2.8D-02
   Bfn.  Coefficient  Atom+Function         Bfn.  Coefficient  Atom+Function  
  ----- ------------  ---------------      ----- ------------  ---------------
     1      0.563679  1 C  s                  2      0.464936  1 C  s          
 
 Vector    3  Occ=1.000000D+00  E=-9.265734D-01
              MO Center=  1.2D+00,  7.8D-02,  1.2D-04, r^2= 5.2D-01
   Bfn.  Coefficient  Atom+Function         Bfn.  Coefficient  Atom+Function  
  ----- ------------  ---------------      ----- ------------  ---------------
    51      0.581759  2 O  s                 55      0.579827  2 O  s          
    47     -0.208676  2 O  s                 46     -0.116228  2 O  s          
   167      0.106345  7 H  s                 53      0.074948  2 O  py         
   168      0.069460  7 H  s                 80     -0.067535  2 O  dzz        
    78     -0.059123  2 O  dyy               75     -0.054847  2 O  dxx        
 
 Vector    4  Occ=1.000000D+00  E=-6.715918D-01
              MO Center= -1.1D+00,  8.5D-03, -1.1D-03, r^2= 1.1D+00
   Bfn.  Coefficient  Atom+Function         Bfn.  Coefficient  Atom+Function  
  ----- ------------  ---------------      ----- ------------  ---------------
     6      0.458538  1 C  s                 10      0.280200  1 C  s          
     2     -0.183636  1 C  s                 93      0.117015  3 H  s          
     1     -0.106716  1 C  s                110      0.088387  4 H  s          
   129      0.088668  5 H  s                148      0.088694  6 H  s          
   111      0.087845  4 H  s                149      0.087368  6 H  s          
 
 Vector    5  Occ=1.000000D+00  E=-4.473201D-01
              MO Center=  4.6D-01,  1.8D-02, -7.9D-04, r^2= 1.9D+00
   Bfn.  Coefficient  Atom+Function         Bfn.  Coefficient  Atom+Function  
  ----- ------------  ---------------      ----- ------------  ---------------
    10      0.249076  1 C  s                 56      0.246587  2 O  px         
    52      0.229661  2 O  px                53      0.183865  2 O  py         
    57      0.167602  2 O  py                48      0.164925  2 O  px         
   101      0.157716  3 H  px                92     -0.149568  3 H  s          
    49      0.135434  2 O  py                 7     -0.134096  1 C  px         
 
 Vector    6  Occ=1.000000D+00  E=-3.912691D-01
              MO Center= -6.9D-01,  5.3D-02, -9.7D-02, r^2= 2.4D+00
   Bfn.  Coefficient  Atom+Function         Bfn.  Coefficient  Atom+Function  
  ----- ------------  ---------------      ----- ------------  ---------------
     8      0.217419  1 C  py               130      0.184238  5 H  s          
     4      0.173148  1 C  py               149     -0.151901  6 H  s          
    55     -0.147011  2 O  s                 12      0.146006  1 C  py         
    53      0.136544  2 O  py                57      0.129164  2 O  py         
   129      0.127800  5 H  s                 51     -0.110303  2 O  s          
 
 Vector    7  Occ=1.000000D+00  E=-3.879262D-01
              MO Center= -1.3D+00, -1.7D-01,  1.5D-01, r^2= 1.2D+00
   Bfn.  Coefficient  Atom+Function         Bfn.  Coefficient  Atom+Function  
  ----- ------------  ---------------      ----- ------------  ---------------
     9      0.266856  1 C  pz               111      0.236578  4 H  s          
     5      0.211413  1 C  pz               149     -0.189462  6 H  s          
    13      0.168967  1 C  pz               110      0.163873  4 H  s          
   148     -0.129475  6 H  s                112      0.108484  4 H  s          
   150     -0.089499  6 H  s                130     -0.053681  5 H  s          
 
 Vector    8  Occ=1.000000D+00  E=-3.781547D-01
              MO Center=  3.7D-01,  5.7D-02, -5.0D-02, r^2= 2.5D+00
   Bfn.  Coefficient  Atom+Function         Bfn.  Coefficient  Atom+Function  
  ----- ------------  ---------------      ----- ------------  ---------------
    53      0.257188  2 O  py                55     -0.249667  2 O  s          
    57      0.235117  2 O  py                49      0.190522  2 O  py         
    51     -0.181622  2 O  s                130     -0.163867  5 H  s          
     8     -0.152110  1 C  py                56     -0.129533  2 O  px         
     4     -0.119315  1 C  py               167      0.116268  7 H  s          
 
 Vector    9  Occ=1.000000D+00  E=-2.628880D-01
              MO Center=  1.3D+00, -7.5D-02,  1.6D-03, r^2= 7.5D-01
   Bfn.  Coefficient  Atom+Function         Bfn.  Coefficient  Atom+Function  
  ----- ------------  ---------------      ----- ------------  ---------------
    54      0.421588  2 O  pz                58      0.402780  2 O  pz         
    50      0.304281  2 O  pz                62      0.091984  2 O  pz         
   112     -0.053217  4 H  s                111     -0.045597  4 H  s          
    32      0.043453  1 C  dxz              150      0.040304  6 H  s          
    13      0.038475  1 C  pz               149      0.032790  6 H  s          
 
 Vector   10  Occ=1.000000D+00  E=-2.492478D-01
              MO Center=  7.1D-02, -4.8D-02,  2.5D-04, r^2= 2.3D+00
   Bfn.  Coefficient  Atom+Function         Bfn.  Coefficient  Atom+Function  
  ----- ------------  ---------------      ----- ------------  ---------------
    56      0.338713  2 O  px                52      0.330498  2 O  px         
    11      0.301239  1 C  px                 7      0.278018  1 C  px         
    48      0.232710  2 O  px                 3      0.196806  1 C  px         
    10      0.196914  1 C  s                 92      0.119818  3 H  s          
     6      0.109786  1 C  s                 51     -0.068293  2 O  s          
 
 Vector   11  Occ=0.000000D+00  E=-1.943904D-02
              MO Center= -3.0D-01,  8.9D-01, -3.1D-02, r^2= 1.1D+01
   Bfn.  Coefficient  Atom+Function         Bfn.  Coefficient  Atom+Function  
  ----- ------------  ---------------      ----- ------------  ---------------
    14      2.623018  1 C  s                132     -1.133794  5 H  s          
    10      0.839031  1 C  s                151     -0.769077  6 H  s          
   113     -0.754633  4 H  s                170     -0.663000  7 H  s          
   150     -0.354705  6 H  s                 93     -0.336635  3 H  s          
    59      0.334334  2 O  s                112     -0.281960  4 H  s          
 
 Vector   12  Occ=0.000000D+00  E= 1.124185D-02
              MO Center= -3.8D-01,  3.6D-01,  1.8D-02, r^2= 1.4D+01
   Bfn.  Coefficient  Atom+Function         Bfn.  Coefficient  Atom+Function  
  ----- ------------  ---------------      ----- ------------  ---------------
    14      2.855509  1 C  s                170      1.337291  7 H  s          
   151     -1.296424  6 H  s                113     -1.224971  4 H  s          
    93     -1.053801  3 H  s                 94     -0.829462  3 H  s          
    10      0.738305  1 C  s                101      0.385552  3 H  px         
    59     -0.357042  2 O  s                 11      0.344243  1 C  px         
 
 Vector   13  Occ=0.000000D+00  E= 3.058082D-02
              MO Center= -1.3D+00,  9.3D-01,  2.3D-01, r^2= 1.3D+01
   Bfn.  Coefficient  Atom+Function         Bfn.  Coefficient  Atom+Function  
  ----- ------------  ---------------      ----- ------------  ---------------
   132      3.532300  5 H  s                113     -2.104169  4 H  s          
    94     -1.431927  3 H  s                131     -0.784555  5 H  s          
    16     -0.716456  1 C  py                14      0.627043  1 C  s          
    59      0.564387  2 O  s                151     -0.486999  6 H  s          
    17      0.355868  1 C  pz               112      0.328073  4 H  s          
 
 Vector   14  Occ=0.000000D+00  E= 3.245588D-02
              MO Center= -1.7D+00, -7.4D-01, -1.9D-01, r^2= 1.3D+01
   Bfn.  Coefficient  Atom+Function         Bfn.  Coefficient  Atom+Function  
  ----- ------------  ---------------      ----- ------------  ---------------
   151      2.931693  6 H  s                113     -2.456338  4 H  s          
    94      0.986247  3 H  s                132     -0.964859  5 H  s          
   112      0.807705  4 H  s                150     -0.684391  6 H  s          
    14     -0.545735  1 C  s                 17      0.486849  1 C  pz         
    13     -0.417198  1 C  pz                16      0.322149  1 C  py         
 
 Vector   15  Occ=0.000000D+00  E= 6.049212D-02
              MO Center= -6.8D-01, -3.1D-01, -6.7D-02, r^2= 1.4D+01
   Bfn.  Coefficient  Atom+Function         Bfn.  Coefficient  Atom+Function  
  ----- ------------  ---------------      ----- ------------  ---------------
    94      4.974335  3 H  s                 14     -2.736286  1 C  s          
   170     -2.291731  7 H  s                 93     -2.029295  3 H  s          
   151     -1.455708  6 H  s                132      1.178444  5 H  s          
   112      1.126505  4 H  s                 11      1.092903  1 C  px         
   150      0.927247  6 H  s                131      0.785313  5 H  s          
 
 Vector   16  Occ=0.000000D+00  E= 7.294137D-02
              MO Center= -4.4D-01,  8.7D-02,  1.3D-01, r^2= 1.1D+01
   Bfn.  Coefficient  Atom+Function         Bfn.  Coefficient  Atom+Function  
  ----- ------------  ---------------      ----- ------------  ---------------
    94      6.908213  3 H  s                 14     -5.490117  1 C  s          
    93      4.033026  3 H  s                151     -3.808347  6 H  s          
    15     -2.763814  1 C  px                10     -1.909355  1 C  s          
    17     -1.799631  1 C  pz               150     -1.508382  6 H  s          
    16     -1.461679  1 C  py               112      1.436699  4 H  s          
 
 Vector   17  Occ=0.000000D+00  E= 7.942762D-02
              MO Center= -8.6D-01, -7.0D-02, -4.9D-01, r^2= 9.4D+00
   Bfn.  Coefficient  Atom+Function         Bfn.  Coefficient  Atom+Function  
  ----- ------------  ---------------      ----- ------------  ---------------
    94      4.288176  3 H  s                113     -4.306262  4 H  s          
    17      3.104531  1 C  pz                14     -2.569632  1 C  s          
   112     -2.541066  4 H  s                 93      2.120461  3 H  s          
   132      2.041183  5 H  s                131      1.571939  5 H  s          
    15     -1.547574  1 C  px               150      1.259064  6 H  s          
 
 Vector   18  Occ=0.000000D+00  E= 8.742065D-02
              MO Center= -6.1D-01, -7.3D-01,  4.7D-01, r^2= 1.1D+01
   Bfn.  Coefficient  Atom+Function         Bfn.  Coefficient  Atom+Function  
  ----- ------------  ---------------      ----- ------------  ---------------
    94      9.153427  3 H  s                 14     -5.634322  1 C  s          
    93      4.186199  3 H  s                 16      3.415930  1 C  py         
   132     -3.128980  5 H  s                 15     -2.542863  1 C  px         
   150      2.322679  6 H  s                131     -2.284602  5 H  s          
   170     -2.050239  7 H  s                 10     -1.841122  1 C  s          
 
 Vector   19  Occ=0.000000D+00  E= 1.070031D-01
              MO Center= -1.4D+00,  5.4D-01, -9.8D-02, r^2= 1.6D+01
   Bfn.  Coefficient  Atom+Function         Bfn.  Coefficient  Atom+Function  
  ----- ------------  ---------------      ----- ------------  ---------------
    14     13.755998  1 C  s                132     -3.736565  5 H  s          
   151     -3.577507  6 H  s                 10      3.437292  1 C  s          
   113     -2.949152  4 H  s                 93     -2.293747  3 H  s          
   150     -2.001305  6 H  s                131     -1.638858  5 H  s          
   112     -1.560305  4 H  s                169      1.314862  7 H  s          
 
 Vector   20  Occ=0.000000D+00  E= 1.368543D-01
              MO Center=  7.1D-01,  5.1D-01,  1.1D-01, r^2= 1.1D+01
   Bfn.  Coefficient  Atom+Function         Bfn.  Coefficient  Atom+Function  
  ----- ------------  ---------------      ----- ------------  ---------------
    14      4.203145  1 C  s                169     -3.768104  7 H  s          
   113     -1.947139  4 H  s                170      1.899871  7 H  s          
    59      1.612901  2 O  s                 94     -1.313365  3 H  s          
   151     -1.250991  6 H  s                150      1.019734  6 H  s          
    61      0.910559  2 O  py                11      0.886774  1 C  px         
 
 Vector   21  Occ=0.000000D+00  E= 1.627480D-01
              MO Center= -1.0D+00, -1.0D-01,  5.9D-01, r^2= 1.0D+01
   Bfn.  Coefficient  Atom+Function         Bfn.  Coefficient  Atom+Function  
  ----- ------------  ---------------      ----- ------------  ---------------
   113      4.949401  4 H  s                 17     -2.444715  1 C  pz         
   151     -2.319783  6 H  s                112     -2.276596  4 H  s          
   132     -2.244023  5 H  s                 13      1.788848  1 C  pz         
   131      1.390576  5 H  s                150      1.015412  6 H  s          
    62      0.796496  2 O  pz               111     -0.516069  4 H  s          
 
 Vector   22  Occ=0.000000D+00  E= 1.641363D-01
              MO Center= -1.5D+00,  4.6D-01, -6.4D-01, r^2= 1.0D+01
   Bfn.  Coefficient  Atom+Function         Bfn.  Coefficient  Atom+Function  
  ----- ------------  ---------------      ----- ------------  ---------------
   151     -4.607740  6 H  s                132      4.395168  5 H  s          
   131     -3.431333  5 H  s                 93     -2.651421  3 H  s          
    16     -2.174546  1 C  py                12      2.022405  1 C  py         
    10      1.782220  1 C  s                150      1.657393  6 H  s          
    59      1.523304  2 O  s                 14      1.325463  1 C  s          
 
 Vector   23  Occ=0.000000D+00  E= 1.747045D-01
              MO Center= -3.0D-02, -3.5D-01,  2.1D-01, r^2= 9.1D+00
   Bfn.  Coefficient  Atom+Function         Bfn.  Coefficient  Atom+Function  
  ----- ------------  ---------------      ----- ------------  ---------------
   150      2.247944  6 H  s                113      2.197800  4 H  s          
   151     -1.778096  6 H  s                 59     -1.505566  2 O  s          
   112     -1.504689  4 H  s                 93      1.303080  3 H  s          
    13      1.112730  1 C  pz                62     -1.098882  2 O  pz         
    14     -1.025831  1 C  s                169      0.988066  7 H  s          
 
 Vector   24  Occ=0.000000D+00  E= 1.916653D-01
              MO Center=  8.1D-01,  2.1D-01, -2.0D-02, r^2= 1.0D+01
   Bfn.  Coefficient  Atom+Function         Bfn.  Coefficient  Atom+Function  
  ----- ------------  ---------------      ----- ------------  ---------------
    93     -8.551479  3 H  s                 14      7.993149  1 C  s          
    10      6.520153  1 C  s                 59      3.221696  2 O  s          
   112     -3.046194  4 H  s                150     -2.777651  6 H  s          
    60     -2.495580  2 O  px               132     -2.215746  5 H  s          
   131     -1.877557  5 H  s                169     -1.836408  7 H  s          
 
 Vector   25  Occ=0.000000D+00  E= 2.187148D-01
              MO Center=  1.1D+00, -6.2D-02, -1.6D-01, r^2= 8.1D+00
   Bfn.  Coefficient  Atom+Function         Bfn.  Coefficient  Atom+Function  
  ----- ------------  ---------------      ----- ------------  ---------------
    59      7.342002  2 O  s                169     -6.510379  7 H  s          
    14      3.470064  1 C  s                 61      3.379201  2 O  py         
    94     -2.482485  3 H  s                 93     -1.910739  3 H  s          
   150     -1.742771  6 H  s                132      1.720701  5 H  s          
    10      1.601286  1 C  s                112     -1.562441  4 H  s          
 
 Vector   26  Occ=0.000000D+00  E= 2.286060D-01
              MO Center= -7.7D-02, -4.2D-01, -5.1D-02, r^2= 7.5D+00
   Bfn.  Coefficient  Atom+Function         Bfn.  Coefficient  Atom+Function  
  ----- ------------  ---------------      ----- ------------  ---------------
    14     11.754293  1 C  s                 94    -10.074788  3 H  s          
   131     -4.216140  5 H  s                 15      3.093950  1 C  px         
    10      2.642553  1 C  s                112     -2.528514  4 H  s          
   170      1.546308  7 H  s                150     -1.471144  6 H  s          
    61     -0.848211  2 O  py                11     -0.837410  1 C  px         
 
 Vector   27  Occ=0.000000D+00  E= 2.578072D-01
              MO Center=  3.9D-01,  3.6D-02, -9.5D-02, r^2= 7.5D+00
   Bfn.  Coefficient  Atom+Function         Bfn.  Coefficient  Atom+Function  
  ----- ------------  ---------------      ----- ------------  ---------------
    14     11.812498  1 C  s                 94     -7.078282  3 H  s          
    59     -4.391159  2 O  s                 10      3.590734  1 C  s          
   169      3.600497  7 H  s                112     -3.174549  4 H  s          
   150     -2.951902  6 H  s                 15      2.531861  1 C  px         
    61     -2.460734  2 O  py                60      1.604523  2 O  px         
 
 Vector   28  Occ=0.000000D+00  E= 2.737481D-01
              MO Center= -1.4D+00, -1.2D-01,  4.7D-03, r^2= 7.8D+00
   Bfn.  Coefficient  Atom+Function         Bfn.  Coefficient  Atom+Function  
  ----- ------------  ---------------      ----- ------------  ---------------
    14      8.359353  1 C  s                 93      5.929963  3 H  s          
   112     -4.483752  4 H  s                150     -4.498010  6 H  s          
   131     -4.347879  5 H  s                 11     -4.094534  1 C  px         
    94     -3.099524  3 H  s                 10      3.066552  1 C  s          
   101     -2.048543  3 H  px                30     -1.332386  1 C  dxx        
 
 Vector   29  Occ=0.000000D+00  E= 2.793642D-01
              MO Center= -5.0D-01, -1.2D-01,  1.2D-01, r^2= 6.1D+00
   Bfn.  Coefficient  Atom+Function         Bfn.  Coefficient  Atom+Function  
  ----- ------------  ---------------      ----- ------------  ---------------
   112      4.422077  4 H  s                150     -4.066150  6 H  s          
    13     -3.046117  1 C  pz                14      2.434985  1 C  s          
    94     -2.163619  3 H  s                 59     -2.026841  2 O  s          
   169      1.859668  7 H  s                 17     -1.528205  1 C  pz         
   131     -1.429289  5 H  s                 61     -1.199718  2 O  py         
 
 Vector   30  Occ=0.000000D+00  E= 2.905180D-01
              MO Center=  4.9D-02, -3.6D-01, -2.7D-02, r^2= 9.5D+00
   Bfn.  Coefficient  Atom+Function         Bfn.  Coefficient  Atom+Function  
  ----- ------------  ---------------      ----- ------------  ---------------
    14     12.961123  1 C  s                 10      6.863691  1 C  s          
    59     -6.494621  2 O  s                150     -5.186716  6 H  s          
   112     -3.834838  4 H  s                131     -2.934159  5 H  s          
   151     -2.928428  6 H  s                 60      2.539437  2 O  px         
    94      2.424571  3 H  s                113     -2.347501  4 H  s          
 
 Vector   31  Occ=0.000000D+00  E= 3.016249D-01
              MO Center= -1.3D+00, -1.4D-01, -3.6D-01, r^2= 6.9D+00
   Bfn.  Coefficient  Atom+Function         Bfn.  Coefficient  Atom+Function  
  ----- ------------  ---------------      ----- ------------  ---------------
   131     -5.092852  5 H  s                112      4.872553  4 H  s          
    12      2.434696  1 C  py                13     -2.273028  1 C  pz         
    94      2.106552  3 H  s                 17     -2.018698  1 C  pz         
    16      1.492033  1 C  py               140      1.038875  5 H  py         
   122     -0.978542  4 H  pz               132     -0.879518  5 H  s          
 
 Vector   32  Occ=0.000000D+00  E= 3.035038D-01
              MO Center= -1.2D+00,  2.5D-01,  4.1D-01, r^2= 7.3D+00
   Bfn.  Coefficient  Atom+Function         Bfn.  Coefficient  Atom+Function  
  ----- ------------  ---------------      ----- ------------  ---------------
   150     -5.208903  6 H  s                131      4.914682  5 H  s          
    12     -2.995142  1 C  py                94     -2.729059  3 H  s          
    16     -2.200589  1 C  py                10     -2.084698  1 C  s          
   112      1.842395  4 H  s                 14     -1.738981  1 C  s          
    34      1.656307  1 C  dyz               93      1.583994  3 H  s          
 
 Vector   33  Occ=0.000000D+00  E= 3.498771D-01
              MO Center=  3.6D-01, -3.8D-01,  2.1D-02, r^2= 7.5D+00
   Bfn.  Coefficient  Atom+Function         Bfn.  Coefficient  Atom+Function  
  ----- ------------  ---------------      ----- ------------  ---------------
    93     23.285080  3 H  s                 59    -11.787439  2 O  s          
    10     -9.130588  1 C  s                 11     -7.953204  1 C  px         
    14     -7.585063  1 C  s                 94      7.496523  3 H  s          
   101     -4.643386  3 H  px                60      3.914248  2 O  px         
    15     -2.575667  1 C  px                30     -2.163950  1 C  dxx        
 
 Vector   34  Occ=0.000000D+00  E= 3.652910D-01
              MO Center=  9.8D-01,  6.1D-01,  4.4D-02, r^2= 4.2D+00
   Bfn.  Coefficient  Atom+Function         Bfn.  Coefficient  Atom+Function  
  ----- ------------  ---------------      ----- ------------  ---------------
    14      1.979783  1 C  s                179     -1.409646  7 H  pz         
    93     -1.178999  3 H  s                 10      1.079619  1 C  s          
   132     -0.780988  5 H  s                 32     -0.776758  1 C  dxz        
    62      0.758970  2 O  pz                34     -0.739624  1 C  dyz        
   151      0.535250  6 H  s                113     -0.528622  4 H  s          
 
 Vector   35  Occ=0.000000D+00  E= 4.264830D-01
              MO Center=  1.2D+00,  5.4D-01, -2.5D-03, r^2= 6.4D+00
   Bfn.  Coefficient  Atom+Function         Bfn.  Coefficient  Atom+Function  
  ----- ------------  ---------------      ----- ------------  ---------------
   169      8.570793  7 H  s                 10      4.561359  1 C  s          
    59     -3.959853  2 O  s                 93     -2.540979  3 H  s          
    61     -2.436584  2 O  py               150     -2.254140  6 H  s          
   178     -2.255580  7 H  py               131     -2.052615  5 H  s          
   112     -1.616245  4 H  s                 55     -1.575958  2 O  s          
 
 Vector   36  Occ=0.000000D+00  E= 4.782851D-01
              MO Center= -1.0D+00,  5.6D-01, -5.2D-02, r^2= 6.8D+00
   Bfn.  Coefficient  Atom+Function         Bfn.  Coefficient  Atom+Function  
  ----- ------------  ---------------      ----- ------------  ---------------
    93      7.532413  3 H  s                131      4.911125  5 H  s          
    10     -4.612463  1 C  s                112      3.580686  4 H  s          
    94      3.186694  3 H  s                 33     -3.117294  1 C  dyy        
    14     -2.796320  1 C  s                150      2.714064  6 H  s          
    35     -2.689748  1 C  dzz               30     -2.592986  1 C  dxx        
 
 Vector   37  Occ=0.000000D+00  E= 4.832444D-01
              MO Center= -1.0D+00,  9.3D-02, -6.3D-02, r^2= 5.9D+00
   Bfn.  Coefficient  Atom+Function         Bfn.  Coefficient  Atom+Function  
  ----- ------------  ---------------      ----- ------------  ---------------
   169      2.712056  7 H  s                150      1.951817  6 H  s          
    33     -1.768010  1 C  dyy               35     -1.697057  1 C  dzz        
   112      1.465147  4 H  s                 94      1.340809  3 H  s          
    59     -1.283410  2 O  s                 10      1.218733  1 C  s          
    30     -1.101327  1 C  dxx              151     -0.974966  6 H  s          
 
 Vector   38  Occ=0.000000D+00  E= 4.852541D-01
              MO Center= -9.7D-01,  1.4D-01, -1.4D-01, r^2= 5.5D+00
   Bfn.  Coefficient  Atom+Function         Bfn.  Coefficient  Atom+Function  
  ----- ------------  ---------------      ----- ------------  ---------------
   169      3.009103  7 H  s                150      1.668500  6 H  s          
    59     -1.310796  2 O  s                 35     -1.138452  1 C  dzz        
    10      1.002890  1 C  s                 12      0.925804  1 C  py         
    33     -0.922873  1 C  dyy              112      0.881203  4 H  s          
   141     -0.878829  5 H  pz               151     -0.754334  6 H  s          
 
 Vector   39  Occ=0.000000D+00  E= 5.215312D-01
              MO Center= -1.1D+00, -9.9D-02,  9.0D-02, r^2= 6.0D+00
   Bfn.  Coefficient  Atom+Function         Bfn.  Coefficient  Atom+Function  
  ----- ------------  ---------------      ----- ------------  ---------------
    10     16.173545  1 C  s                 14     14.462049  1 C  s          
    93     -8.651695  3 H  s                112     -6.774726  4 H  s          
   131     -5.017839  5 H  s                150     -3.980591  6 H  s          
   101      3.784948  3 H  px                94     -3.106414  3 H  s          
   151     -2.854224  6 H  s                 59      2.595150  2 O  s          
 
 Vector   40  Occ=0.000000D+00  E= 5.238435D-01
              MO Center= -1.1D+00,  5.9D-03,  1.4D-01, r^2= 6.0D+00
   Bfn.  Coefficient  Atom+Function         Bfn.  Coefficient  Atom+Function  
  ----- ------------  ---------------      ----- ------------  ---------------
    10     11.837664  1 C  s                 14     10.593481  1 C  s          
    93     -6.342178  3 H  s                131     -5.047645  5 H  s          
   150     -4.763547  6 H  s                113     -3.193974  4 H  s          
   169     -3.151506  7 H  s                 59      2.906362  2 O  s          
   101      2.689939  3 H  px               112     -2.042782  4 H  s          
 
 Vector   41  Occ=0.000000D+00  E= 5.301177D-01
              MO Center= -1.6D+00,  2.9D-02, -3.0D-01, r^2= 5.7D+00
   Bfn.  Coefficient  Atom+Function         Bfn.  Coefficient  Atom+Function  
  ----- ------------  ---------------      ----- ------------  ---------------
   150      6.430458  6 H  s                 10     -5.523402  1 C  s          
    14     -5.166462  1 C  s                132      3.174227  5 H  s          
    12      3.093451  1 C  py                93      2.931780  3 H  s          
   151     -2.428749  6 H  s                131     -2.145277  5 H  s          
    94      2.092063  3 H  s                159      1.716024  6 H  py         
 
 Vector   42  Occ=0.000000D+00  E= 5.436199D-01
              MO Center= -9.0D-01,  6.6D-02,  3.6D-01, r^2= 5.7D+00
   Bfn.  Coefficient  Atom+Function         Bfn.  Coefficient  Atom+Function  
  ----- ------------  ---------------      ----- ------------  ---------------
   112      5.879026  4 H  s                 13     -3.793704  1 C  pz         
   131     -3.662061  5 H  s                113     -2.216476  4 H  s          
    12      2.065193  1 C  py                59     -1.875515  2 O  s          
   169      1.864253  7 H  s                132      1.720021  5 H  s          
   120      1.541066  4 H  px               122     -1.462879  4 H  pz         
 
 Vector   43  Occ=0.000000D+00  E= 5.530809D-01
              MO Center= -1.5D+00, -5.8D-02, -1.6D-02, r^2= 4.6D+00
   Bfn.  Coefficient  Atom+Function         Bfn.  Coefficient  Atom+Function  
  ----- ------------  ---------------      ----- ------------  ---------------
    93      7.404304  3 H  s                 11     -5.632484  1 C  px         
    14      4.763851  1 C  s                101     -4.628664  3 H  px         
   150     -3.925562  6 H  s                 94     -3.881100  3 H  s          
   112     -2.510468  4 H  s                131     -2.263366  5 H  s          
    59     -2.021627  2 O  s                 55      1.972747  2 O  s          
 
 Vector   44  Occ=0.000000D+00  E= 5.597333D-01
              MO Center= -7.8D-01, -6.7D-02, -5.2D-02, r^2= 5.2D+00
   Bfn.  Coefficient  Atom+Function         Bfn.  Coefficient  Atom+Function  
  ----- ------------  ---------------      ----- ------------  ---------------
    31      2.960530  1 C  dxy              131     -2.699154  5 H  s          
    12      2.475288  1 C  py                14      2.181864  1 C  s          
   150      2.104104  6 H  s                 59     -1.879002  2 O  s          
   112     -1.846000  4 H  s                158      1.578284  6 H  px         
   139     -1.367438  5 H  px                13      1.300341  1 C  pz         
 
 Vector   45  Occ=0.000000D+00  E= 5.806188D-01
              MO Center= -8.6D-01,  1.4D-01,  4.2D-02, r^2= 4.7D+00
   Bfn.  Coefficient  Atom+Function         Bfn.  Coefficient  Atom+Function  
  ----- ------------  ---------------      ----- ------------  ---------------
    32      3.681881  1 C  dxz               34      2.095728  1 C  dyz        
   103     -1.875095  3 H  pz                31      1.449986  1 C  dxy        
    93     -1.395651  3 H  s                 59      1.232793  2 O  s          
   112      1.087400  4 H  s                149     -1.011810  6 H  s          
   111      0.945402  4 H  s                113     -0.904943  4 H  s          
 
 Vector   46  Occ=0.000000D+00  E= 6.420221D-01
              MO Center=  3.5D-01,  6.0D-01, -3.9D-02, r^2= 5.3D+00
   Bfn.  Coefficient  Atom+Function         Bfn.  Coefficient  Atom+Function  
  ----- ------------  ---------------      ----- ------------  ---------------
    59      4.652716  2 O  s                169     -4.235605  7 H  s          
    55      3.133730  2 O  s                 93     -3.094122  3 H  s          
   168     -3.081062  7 H  s                178      2.886182  7 H  py         
    57      2.118413  2 O  py               102     -1.703372  3 H  py         
   131      1.561144  5 H  s                 34      1.548946  1 C  dyz        
 
 Vector   47  Occ=0.000000D+00  E= 6.618049D-01
              MO Center= -7.3D-01, -2.4D-02, -3.6D-02, r^2= 6.5D+00
   Bfn.  Coefficient  Atom+Function         Bfn.  Coefficient  Atom+Function  
  ----- ------------  ---------------      ----- ------------  ---------------
    93     23.189126  3 H  s                 59    -10.555102  2 O  s          
    10     -6.969766  1 C  s                101     -6.537387  3 H  px         
    11     -5.946115  1 C  px                30     -4.154215  1 C  dxx        
    60      3.832877  2 O  px               131     -2.614004  5 H  s          
   169      2.461047  7 H  s                 31      2.159274  1 C  dxy        
 
 Vector   48  Occ=0.000000D+00  E= 7.327460D-01
              MO Center=  5.0D-01,  4.8D-01,  2.8D-02, r^2= 6.2D+00
   Bfn.  Coefficient  Atom+Function         Bfn.  Coefficient  Atom+Function  
  ----- ------------  ---------------      ----- ------------  ---------------
   169     10.582617  7 H  s                 59     -6.884581  2 O  s          
    93     -5.151791  3 H  s                 55     -4.676995  2 O  s          
   178     -4.485684  7 H  py               168      3.491836  7 H  s          
    32     -2.842759  1 C  dxz               34      2.734808  1 C  dyz        
    11      2.657681  1 C  px                57     -2.644294  2 O  py         
 
 Vector   49  Occ=0.000000D+00  E= 7.595699D-01
              MO Center= -1.3D+00,  3.4D-01, -2.3D-01, r^2= 5.1D+00
   Bfn.  Coefficient  Atom+Function         Bfn.  Coefficient  Atom+Function  
  ----- ------------  ---------------      ----- ------------  ---------------
    13      5.630699  1 C  pz                32     -5.097190  1 C  dxz        
    34      3.975051  1 C  dyz              141     -3.645928  5 H  pz         
   169     -3.468262  7 H  s                 59      2.605734  2 O  s          
   159      2.289220  6 H  py                93      2.274795  3 H  s          
    33      2.061547  1 C  dyy               35     -2.015870  1 C  dzz        
 
 Vector   50  Occ=0.000000D+00  E= 7.667038D-01
              MO Center= -1.5D+00, -2.9D-01,  2.0D-01, r^2= 4.9D+00
   Bfn.  Coefficient  Atom+Function         Bfn.  Coefficient  Atom+Function  
  ----- ------------  ---------------      ----- ------------  ---------------
    31      6.236965  1 C  dxy               12     -5.409235  1 C  py         
    93     -4.137863  3 H  s                121      3.389907  4 H  py         
    34     -3.190780  1 C  dyz              160     -2.482577  6 H  pz         
   131      2.131713  5 H  s                 35     -2.106177  1 C  dzz        
   139     -1.876773  5 H  px               159      1.823919  6 H  py         
 
 Vector   51  Occ=0.000000D+00  E= 8.135453D-01
              MO Center= -3.6D-01,  1.8D-01, -1.1D-01, r^2= 4.9D+00
   Bfn.  Coefficient  Atom+Function         Bfn.  Coefficient  Atom+Function  
  ----- ------------  ---------------      ----- ------------  ---------------
    12      5.272005  1 C  py                31      5.145818  1 C  dxy        
    59      3.560909  2 O  s                130     -3.208961  5 H  s          
    13     -3.095732  1 C  pz               101     -3.068898  3 H  px         
   102     -3.028213  3 H  py                11     -2.631603  1 C  px         
    14     -2.575702  1 C  s                169     -2.463588  7 H  s          
 
 Vector   52  Occ=0.000000D+00  E= 8.479234D-01
              MO Center= -1.3D+00, -7.4D-02,  3.8D-01, r^2= 5.1D+00
   Bfn.  Coefficient  Atom+Function         Bfn.  Coefficient  Atom+Function  
  ----- ------------  ---------------      ----- ------------  ---------------
   112     -8.358635  4 H  s                 13      7.877915  1 C  pz         
   111     -4.471863  4 H  s                150      4.171716  6 H  s          
   131      4.121368  5 H  s                 34     -4.066532  1 C  dyz        
   149      2.895019  6 H  s                122      2.797431  4 H  pz         
    31      2.189597  1 C  dxy              140     -1.755938  5 H  py         
 
 Vector   53  Occ=0.000000D+00  E= 8.528235D-01
              MO Center= -9.3D-01, -2.6D-01, -1.0D-01, r^2= 5.6D+00
   Bfn.  Coefficient  Atom+Function         Bfn.  Coefficient  Atom+Function  
  ----- ------------  ---------------      ----- ------------  ---------------
    93     17.763332  3 H  s                 11    -13.325171  1 C  px         
   150     -6.432283  6 H  s                101     -6.308575  3 H  px         
    59     -5.150793  2 O  s                 30     -4.205332  1 C  dxx        
    92      3.865255  3 H  s                149     -3.688760  6 H  s          
   112     -3.630379  4 H  s                 10     -2.662564  1 C  s          
 
 Vector   54  Occ=0.000000D+00  E= 8.606600D-01
              MO Center= -1.1D+00, -2.4D-01, -1.1D-01, r^2= 4.8D+00
   Bfn.  Coefficient  Atom+Function         Bfn.  Coefficient  Atom+Function  
  ----- ------------  ---------------      ----- ------------  ---------------
   150      5.255529  6 H  s                 32     -4.401922  1 C  dxz        
   131     -4.203770  5 H  s                 12      3.200813  1 C  py         
   112     -2.991518  4 H  s                 93      2.467251  3 H  s          
   159      2.428694  6 H  py                34      2.235063  1 C  dyz        
    31     -2.159039  1 C  dxy              103      2.129042  3 H  pz         
 
 Vector   55  Occ=0.000000D+00  E= 8.696453D-01
              MO Center= -9.4D-01,  5.0D-01, -7.4D-02, r^2= 5.2D+00
   Bfn.  Coefficient  Atom+Function         Bfn.  Coefficient  Atom+Function  
  ----- ------------  ---------------      ----- ------------  ---------------
   131      8.156623  5 H  s                 12     -6.596763  1 C  py         
    34      4.598166  1 C  dyz              130      3.635549  5 H  s          
   140     -3.522708  5 H  py                93     -3.341378  3 H  s          
   150     -3.179204  6 H  s                 11      3.048187  1 C  px         
   169     -2.966834  7 H  s                 32     -2.864403  1 C  dxz        
 
 Vector   56  Occ=0.000000D+00  E= 9.308319D-01
              MO Center= -4.8D-01, -1.4D-01,  4.3D-02, r^2= 5.7D+00
   Bfn.  Coefficient  Atom+Function         Bfn.  Coefficient  Atom+Function  
  ----- ------------  ---------------      ----- ------------  ---------------
    10     27.505560  1 C  s                 93    -13.344409  3 H  s          
    14     10.343380  1 C  s                150     -7.146057  6 H  s          
   112     -6.910338  4 H  s                 11      5.612211  1 C  px         
    59      5.189089  2 O  s                131     -4.956174  5 H  s          
   101      4.269618  3 H  px                92     -3.465668  3 H  s          
 
 Vector   57  Occ=0.000000D+00  E= 9.414516D-01
              MO Center=  6.9D-01, -2.1D-01,  3.8D-01, r^2= 4.3D+00
   Bfn.  Coefficient  Atom+Function         Bfn.  Coefficient  Atom+Function  
  ----- ------------  ---------------      ----- ------------  ---------------
    10     16.577475  1 C  s                 14      7.271999  1 C  s          
   101      5.379135  3 H  px               150     -4.073897  6 H  s          
   112     -3.942742  4 H  s                131     -3.957354  5 H  s          
    93     -3.327886  3 H  s                 59     -2.501391  2 O  s          
    34      2.005971  1 C  dyz              149     -1.966454  6 H  s          
 
 Vector   58  Occ=0.000000D+00  E= 9.467023D-01
              MO Center=  1.0D+00, -3.0D-01, -2.9D-01, r^2= 4.0D+00
   Bfn.  Coefficient  Atom+Function         Bfn.  Coefficient  Atom+Function  
  ----- ------------  ---------------      ----- ------------  ---------------
    10     14.566876  1 C  s                 14      6.395097  1 C  s          
   101      5.003119  3 H  px                93     -4.520865  3 H  s          
   131     -4.062369  5 H  s                150     -3.162214  6 H  s          
    34     -2.813243  1 C  dyz              112     -2.507959  4 H  s          
    55     -1.724256  2 O  s                130     -1.716297  5 H  s          
 
 Vector   59  Occ=0.000000D+00  E= 9.658957D-01
              MO Center=  1.8D+00, -2.9D-01, -1.3D-01, r^2= 3.3D+00
   Bfn.  Coefficient  Atom+Function         Bfn.  Coefficient  Atom+Function  
  ----- ------------  ---------------      ----- ------------  ---------------
    93      7.679523  3 H  s                 94      4.294070  3 H  s          
    59     -3.767815  2 O  s                101     -2.900392  3 H  px         
    11     -2.879712  1 C  px                14     -2.680267  1 C  s          
    75      2.550128  2 O  dxx              169     -1.977954  7 H  s          
    80      1.689444  2 O  dzz               15     -1.482470  1 C  px         
 
 Vector   60  Occ=0.000000D+00  E= 1.001898D+00
              MO Center=  1.3D+00,  5.7D-02, -1.7D-01, r^2= 2.8D+00
   Bfn.  Coefficient  Atom+Function         Bfn.  Coefficient  Atom+Function  
  ----- ------------  ---------------      ----- ------------  ---------------
    10      3.517100  1 C  s                 94      2.893637  3 H  s          
   101      2.872252  3 H  px                79      1.598603  2 O  dyz        
    55     -1.256637  2 O  s                 59     -1.078515  2 O  s          
   179     -1.034555  7 H  pz                93      1.021794  3 H  s          
   169     -1.012439  7 H  s                 61      0.993995  2 O  py         
 
 Vector   61  Occ=0.000000D+00  E= 1.017932D+00
              MO Center=  1.1D+00, -3.5D-04,  1.9D-01, r^2= 4.0D+00
   Bfn.  Coefficient  Atom+Function         Bfn.  Coefficient  Atom+Function  
  ----- ------------  ---------------      ----- ------------  ---------------
    10     10.361579  1 C  s                 14      7.224866  1 C  s          
    93     -6.189022  3 H  s                 94     -4.566611  3 H  s          
   131     -3.724623  5 H  s                112     -3.189664  4 H  s          
   150     -3.205118  6 H  s                 11      2.301976  1 C  px         
    59      2.173789  2 O  s                 92     -1.636000  3 H  s          
 
 Vector   62  Occ=0.000000D+00  E= 1.199255D+00
              MO Center= -5.1D-02, -6.4D-02,  1.3D-02, r^2= 4.5D+00
   Bfn.  Coefficient  Atom+Function         Bfn.  Coefficient  Atom+Function  
  ----- ------------  ---------------      ----- ------------  ---------------
    10     22.680722  1 C  s                101     13.447031  3 H  px         
    93    -12.297253  3 H  s                 11      4.965760  1 C  px         
    14      4.959353  1 C  s                 59      4.422864  2 O  s          
    31     -4.143268  1 C  dxy               56      4.121376  2 O  px         
    12     -3.999172  1 C  py                55     -3.727745  2 O  s          
 
 Vector   63  Occ=0.000000D+00  E= 1.286706D+00
              MO Center= -2.6D-01, -1.6D-01,  4.2D-02, r^2= 4.6D+00
   Bfn.  Coefficient  Atom+Function         Bfn.  Coefficient  Atom+Function  
  ----- ------------  ---------------      ----- ------------  ---------------
    10     13.232381  1 C  s                101      4.667194  3 H  px         
    35     -3.859301  1 C  dzz              102     -3.650607  3 H  py         
    31      3.471875  1 C  dxy               14      2.972015  1 C  s          
    12      2.677817  1 C  py                30     -2.626515  1 C  dxx        
    33     -2.482330  1 C  dyy                6     -2.341877  1 C  s          
 
 Vector   64  Occ=0.000000D+00  E= 1.309309D+00
              MO Center= -2.9D-01,  2.7D-02, -8.5D-02, r^2= 3.5D+00
   Bfn.  Coefficient  Atom+Function         Bfn.  Coefficient  Atom+Function  
  ----- ------------  ---------------      ----- ------------  ---------------
    32      5.068718  1 C  dxz               34     -4.257762  1 C  dyz        
   103     -4.129208  3 H  pz                13      3.881034  1 C  pz         
    58      1.904005  2 O  pz                33     -1.821405  1 C  dyy        
   169      1.822919  7 H  s                 77     -1.708934  2 O  dxz        
   111     -1.672110  4 H  s                 59     -1.395954  2 O  s          
 
 Vector   65  Occ=0.000000D+00  E= 1.334299D+00
              MO Center= -4.6D-01, -1.3D-02, -1.4D-03, r^2= 4.0D+00
   Bfn.  Coefficient  Atom+Function         Bfn.  Coefficient  Atom+Function  
  ----- ------------  ---------------      ----- ------------  ---------------
    93     12.631849  3 H  s                 59     -5.068642  2 O  s          
   101     -4.856538  3 H  px                30     -4.775258  1 C  dxx        
    33     -3.606147  1 C  dyy               10     -3.460140  1 C  s          
    11     -3.440533  1 C  px                 6     -3.374885  1 C  s          
    35     -3.142113  1 C  dzz               94      2.497482  3 H  s          
 
 Vector   66  Occ=0.000000D+00  E= 1.402674D+00
              MO Center= -4.5D-01, -5.8D-02, -3.5D-02, r^2= 3.3D+00
   Bfn.  Coefficient  Atom+Function         Bfn.  Coefficient  Atom+Function  
  ----- ------------  ---------------      ----- ------------  ---------------
   169      3.148752  7 H  s                168      2.701805  7 H  s          
   103     -2.423187  3 H  pz                13      2.348067  1 C  pz         
    57     -2.346367  2 O  py                55     -2.232160  2 O  s          
    93     -1.954081  3 H  s                178     -1.572603  7 H  py         
    78     -1.540008  2 O  dyy               77     -1.312381  2 O  dxz        
 
 Vector   67  Occ=0.000000D+00  E= 1.420877D+00
              MO Center= -5.5D-01,  1.4D-01,  5.6D-02, r^2= 3.4D+00
   Bfn.  Coefficient  Atom+Function         Bfn.  Coefficient  Atom+Function  
  ----- ------------  ---------------      ----- ------------  ---------------
   169      4.644752  7 H  s                168      3.047786  7 H  s          
    57     -3.008513  2 O  py                55     -2.717957  2 O  s          
    59     -2.055085  2 O  s                 93     -2.063999  3 H  s          
   178     -2.038156  7 H  py               103      1.883899  3 H  pz         
    31     -1.869528  1 C  dxy               13     -1.831042  1 C  pz         
 
 Vector   68  Occ=0.000000D+00  E= 1.479265D+00
              MO Center=  6.2D-01,  3.0D-01,  2.6D-02, r^2= 3.6D+00
   Bfn.  Coefficient  Atom+Function         Bfn.  Coefficient  Atom+Function  
  ----- ------------  ---------------      ----- ------------  ---------------
   168      8.531830  7 H  s                 55     -7.591756  2 O  s          
    57     -7.127613  2 O  py               169      6.742669  7 H  s          
    59     -4.312489  2 O  s                 78     -4.292117  2 O  dyy        
   101      4.101920  3 H  px               178     -4.041451  7 H  py         
    10      3.076020  1 C  s                 12     -2.116992  1 C  py         
 
 Vector   69  Occ=0.000000D+00  E= 1.590123D+00
              MO Center= -6.2D-01, -1.5D-01, -3.4D-03, r^2= 3.1D+00
   Bfn.  Coefficient  Atom+Function         Bfn.  Coefficient  Atom+Function  
  ----- ------------  ---------------      ----- ------------  ---------------
    93     18.926858  3 H  s                101    -13.881795  3 H  px         
    11    -11.010666  1 C  px                10     -6.584097  1 C  s          
    56     -5.957642  2 O  px                59     -5.847988  2 O  s          
    55      4.150030  2 O  s                 30     -3.772885  1 C  dxx        
    75      2.816949  2 O  dxx              131     -2.355418  5 H  s          
 
 Vector   70  Occ=0.000000D+00  E= 1.644624D+00
              MO Center= -1.3D+00,  1.5D-02,  1.8D-02, r^2= 2.7D+00
   Bfn.  Coefficient  Atom+Function         Bfn.  Coefficient  Atom+Function  
  ----- ------------  ---------------      ----- ------------  ---------------
   112     -4.299404  4 H  s                 13      4.255267  1 C  pz         
   131      3.339302  5 H  s                111     -2.932279  4 H  s          
    12     -2.796287  1 C  py               130      2.244582  5 H  s          
   122      1.797951  4 H  pz               113      1.680916  4 H  s          
   140     -1.401532  5 H  py               132     -1.231943  5 H  s          
 
 Vector   71  Occ=0.000000D+00  E= 1.647732D+00
              MO Center= -1.3D+00,  4.7D-03, -2.6D-02, r^2= 2.7D+00
   Bfn.  Coefficient  Atom+Function         Bfn.  Coefficient  Atom+Function  
  ----- ------------  ---------------      ----- ------------  ---------------
   150      4.424620  6 H  s                 12      4.232778  1 C  py         
   149      3.100243  6 H  s                 13      2.859855  1 C  pz         
   131     -2.759721  5 H  s                130     -1.963770  5 H  s          
   151     -1.728245  6 H  s                 34     -1.625228  1 C  dyz        
   112     -1.336020  4 H  s                160      1.315178  6 H  pz         
 
 Vector   72  Occ=0.000000D+00  E= 1.729735D+00
              MO Center= -1.5D+00,  4.9D-02, -1.0D-02, r^2= 2.2D+00
   Bfn.  Coefficient  Atom+Function         Bfn.  Coefficient  Atom+Function  
  ----- ------------  ---------------      ----- ------------  ---------------
   138     -0.716246  5 H  pz               118      0.695162  4 H  py         
   141      0.679868  5 H  pz               121     -0.652778  4 H  py         
   156     -0.516827  6 H  py               159      0.510338  6 H  py         
   157      0.503860  6 H  pz               160     -0.484233  6 H  pz         
   137     -0.202351  5 H  py               140      0.178645  5 H  py         
 
 Vector   73  Occ=0.000000D+00  E= 1.780248D+00
              MO Center= -5.3D-01, -5.0D-02,  1.4D-01, r^2= 2.5D+00
   Bfn.  Coefficient  Atom+Function         Bfn.  Coefficient  Atom+Function  
  ----- ------------  ---------------      ----- ------------  ---------------
   103      2.136065  3 H  pz               168      1.532086  7 H  s          
    32     -1.502950  1 C  dxz              112     -1.147371  4 H  s          
    55     -1.129723  2 O  s                 93     -0.955978  3 H  s          
   100     -0.914800  3 H  pz                34      0.787537  1 C  dyz        
   150      0.785024  6 H  s                 57     -0.771189  2 O  py         
 
 Vector   74  Occ=0.000000D+00  E= 1.811420D+00
              MO Center= -5.4D-01,  8.6D-02, -1.4D-01, r^2= 3.0D+00
   Bfn.  Coefficient  Atom+Function         Bfn.  Coefficient  Atom+Function  
  ----- ------------  ---------------      ----- ------------  ---------------
    93      2.218265  3 H  s                102      1.570985  3 H  py         
   131     -1.142740  5 H  s                169     -1.020562  7 H  s          
    14      1.009537  1 C  s                 94     -0.933738  3 H  s          
    11     -0.924516  1 C  px               149      0.903663  6 H  s          
   130     -0.898406  5 H  s                150      0.813576  6 H  s          
 
 Vector   75  Occ=0.000000D+00  E= 1.855192D+00
              MO Center=  1.0D+00,  5.8D-01,  5.7D-03, r^2= 2.1D+00
   Bfn.  Coefficient  Atom+Function         Bfn.  Coefficient  Atom+Function  
  ----- ------------  ---------------      ----- ------------  ---------------
   176      1.309597  7 H  pz                34      1.262507  1 C  dyz        
    79     -0.985042  2 O  dyz              102      0.922789  3 H  py         
    31     -0.865854  1 C  dxy               93      0.841287  3 H  s          
   131     -0.766770  5 H  s                 13     -0.759517  1 C  pz         
   168      0.653523  7 H  s                 32     -0.648768  1 C  dxz        
 
 Vector   76  Occ=0.000000D+00  E= 1.890737D+00
              MO Center=  1.2D+00,  8.7D-01, -4.1D-03, r^2= 2.4D+00
   Bfn.  Coefficient  Atom+Function         Bfn.  Coefficient  Atom+Function  
  ----- ------------  ---------------      ----- ------------  ---------------
   168      7.792678  7 H  s                 55     -5.672068  2 O  s          
    57     -3.075740  2 O  py                59     -3.088100  2 O  s          
   178     -2.848997  7 H  py               169      2.475560  7 H  s          
   167     -1.645934  7 H  s                 14      1.308078  1 C  s          
    32      0.983755  1 C  dxz               92      0.940670  3 H  s          
 
 Vector   77  Occ=0.000000D+00  E= 1.962759D+00
              MO Center=  3.7D-01,  2.3D-01,  1.7D-03, r^2= 3.4D+00
   Bfn.  Coefficient  Atom+Function         Bfn.  Coefficient  Atom+Function  
  ----- ------------  ---------------      ----- ------------  ---------------
    10     14.279520  1 C  s                101      7.988228  3 H  px         
    93     -7.070949  3 H  s                 56      3.624913  2 O  px         
    55     -3.314830  2 O  s                 11      2.927756  1 C  px         
    14      2.726717  1 C  s                131     -2.261941  5 H  s          
    75     -2.229885  2 O  dxx              130     -1.760829  5 H  s          
 
 Vector   78  Occ=0.000000D+00  E= 2.055032D+00
              MO Center= -1.1D+00, -1.9D-02,  9.5D-03, r^2= 2.7D+00
   Bfn.  Coefficient  Atom+Function         Bfn.  Coefficient  Atom+Function  
  ----- ------------  ---------------      ----- ------------  ---------------
    13      4.248376  1 C  pz               150      3.076603  6 H  s          
   149      2.986068  6 H  s                111     -2.512495  4 H  s          
   112     -2.341426  4 H  s                 28     -1.613450  1 C  dyz        
    26     -1.436874  1 C  dxz               10     -1.347563  1 C  s          
   159      1.301212  6 H  py                12      1.177626  1 C  py         
 
 Vector   79  Occ=0.000000D+00  E= 2.088621D+00
              MO Center= -7.9D-01,  8.5D-02,  3.6D-02, r^2= 3.3D+00
   Bfn.  Coefficient  Atom+Function         Bfn.  Coefficient  Atom+Function  
  ----- ------------  ---------------      ----- ------------  ---------------
    10      6.334487  1 C  s                 12     -3.982571  1 C  py         
   112     -3.541496  4 H  s                111     -3.159973  4 H  s          
   150     -2.766589  6 H  s                169     -2.681573  7 H  s          
   149     -2.554533  6 H  s                 59      2.159724  2 O  s          
    14      1.952523  1 C  s                122      1.770172  4 H  pz         
 
 Vector   80  Occ=0.000000D+00  E= 2.144502D+00
              MO Center= -5.5D-01,  3.3D-01, -3.5D-02, r^2= 3.4D+00
   Bfn.  Coefficient  Atom+Function         Bfn.  Coefficient  Atom+Function  
  ----- ------------  ---------------      ----- ------------  ---------------
    10      6.009287  1 C  s                130     -4.509347  5 H  s          
   131     -4.509870  5 H  s                 12      3.462540  1 C  py         
   140      2.170050  5 H  py                93     -1.970803  3 H  s          
    27      1.576186  1 C  dyy               13     -1.252217  1 C  pz         
    76      1.142840  2 O  dxy               14      1.099291  1 C  s          
 
 Vector   81  Occ=0.000000D+00  E= 2.181495D+00
              MO Center= -5.8D-01, -1.1D-01,  6.9D-03, r^2= 3.1D+00
   Bfn.  Coefficient  Atom+Function         Bfn.  Coefficient  Atom+Function  
  ----- ------------  ---------------      ----- ------------  ---------------
    10     19.389699  1 C  s                101     15.154984  3 H  px         
    56      7.574107  2 O  px                55     -6.455259  2 O  s          
    93     -5.017320  3 H  s                 11      4.447471  1 C  px         
    14      3.903634  1 C  s                 75     -3.340289  2 O  dxx        
    92      3.180824  3 H  s                112     -2.259486  4 H  s          
 
 Vector   82  Occ=0.000000D+00  E= 2.301894D+00
              MO Center= -1.4D+00,  6.6D-03, -9.6D-04, r^2= 3.2D+00
   Bfn.  Coefficient  Atom+Function         Bfn.  Coefficient  Atom+Function  
  ----- ------------  ---------------      ----- ------------  ---------------
    10     20.784681  1 C  s                111     -7.065794  4 H  s          
   149     -7.032211  6 H  s                130     -6.865094  5 H  s          
   150     -5.518489  6 H  s                112     -5.455025  4 H  s          
   131     -5.336687  5 H  s                 11     -4.051891  1 C  px         
    14      3.704275  1 C  s                101     -3.004947  3 H  px         
 
 Vector   83  Occ=0.000000D+00  E= 2.348391D+00
              MO Center= -1.2D+00, -6.2D-02,  4.1D-02, r^2= 2.4D+00
   Bfn.  Coefficient  Atom+Function         Bfn.  Coefficient  Atom+Function  
  ----- ------------  ---------------      ----- ------------  ---------------
    13      4.421187  1 C  pz               111     -3.429744  4 H  s          
   112     -3.046771  4 H  s                149      2.943846  6 H  s          
   150      2.750520  6 H  s                 32     -2.433654  1 C  dxz        
    28     -1.428621  1 C  dyz              159      1.333642  6 H  py         
   122      1.264915  4 H  pz                40      0.960904  1 C  fxyz       
 
 Vector   84  Occ=0.000000D+00  E= 2.366565D+00
              MO Center= -1.0D+00,  2.6D-02, -5.1D-02, r^2= 2.6D+00
   Bfn.  Coefficient  Atom+Function         Bfn.  Coefficient  Atom+Function  
  ----- ------------  ---------------      ----- ------------  ---------------
    12      4.036075  1 C  py               130     -3.603016  5 H  s          
   149      2.950523  6 H  s                131     -2.924261  5 H  s          
   150      2.600898  6 H  s                 31     -2.476287  1 C  dxy        
    93      1.693531  3 H  s                169     -1.294786  7 H  s          
   140      1.275543  5 H  py               160      1.256910  6 H  pz         
 
 Vector   85  Occ=0.000000D+00  E= 2.463800D+00
              MO Center= -1.2D+00,  1.9D-01, -2.1D-02, r^2= 2.8D+00
   Bfn.  Coefficient  Atom+Function         Bfn.  Coefficient  Atom+Function  
  ----- ------------  ---------------      ----- ------------  ---------------
   130      7.992596  5 H  s                 12     -7.133057  1 C  py         
   131      5.362949  5 H  s                111     -4.708964  4 H  s          
   149     -3.549101  6 H  s                112     -3.286872  4 H  s          
   150     -2.602314  6 H  s                 13      2.534540  1 C  pz         
    35      2.354881  1 C  dzz               33     -2.338790  1 C  dyy        
 
 Vector   86  Occ=0.000000D+00  E= 2.475298D+00
              MO Center= -1.2D+00, -9.6D-02, -1.7D-03, r^2= 2.7D+00
   Bfn.  Coefficient  Atom+Function         Bfn.  Coefficient  Atom+Function  
  ----- ------------  ---------------      ----- ------------  ---------------
   149      6.811980  6 H  s                 13      6.349974  1 C  pz         
   111     -5.908763  4 H  s                150      4.922627  6 H  s          
    34     -4.744068  1 C  dyz              112     -4.100244  4 H  s          
    12      3.145940  1 C  py                40      2.413467  1 C  fxyz       
     9      1.603585  1 C  pz               101     -1.582830  3 H  px         
 
 Vector   87  Occ=0.000000D+00  E= 2.516291D+00
              MO Center= -2.6D-01,  8.2D-02, -4.6D-02, r^2= 2.7D+00
   Bfn.  Coefficient  Atom+Function         Bfn.  Coefficient  Atom+Function  
  ----- ------------  ---------------      ----- ------------  ---------------
    10     10.498868  1 C  s                101      9.695792  3 H  px         
    93     -8.367299  3 H  s                 11      6.870713  1 C  px         
    56      5.681730  2 O  px                75     -3.476371  2 O  dxx        
    12     -3.292726  1 C  py               168     -2.863910  7 H  s          
    14      2.401767  1 C  s                130      2.238679  5 H  s          
 
 Vector   88  Occ=0.000000D+00  E= 2.558080D+00
              MO Center= -1.1D+00,  1.6D-01,  2.6D-01, r^2= 2.4D+00
   Bfn.  Coefficient  Atom+Function         Bfn.  Coefficient  Atom+Function  
  ----- ------------  ---------------      ----- ------------  ---------------
    10      4.835765  1 C  s                101      4.798936  3 H  px         
   111      4.161138  4 H  s                 13     -3.893506  1 C  pz         
    11      3.280663  1 C  px                93     -3.271123  3 H  s          
    56      2.762764  2 O  px               130     -2.475133  5 H  s          
    75     -1.771614  2 O  dxx               12      1.512347  1 C  py         
 
 Vector   89  Occ=0.000000D+00  E= 2.570793D+00
              MO Center= -1.0D+00, -2.1D-01, -1.8D-01, r^2= 2.7D+00
   Bfn.  Coefficient  Atom+Function         Bfn.  Coefficient  Atom+Function  
  ----- ------------  ---------------      ----- ------------  ---------------
    10      6.228046  1 C  s                101      5.721203  3 H  px         
    93     -5.113553  3 H  s                149      4.727913  6 H  s          
    11      4.421909  1 C  px                13      4.333459  1 C  pz         
    56      3.265311  2 O  px               111     -2.652791  4 H  s          
   168     -2.145445  7 H  s                 75     -2.077723  2 O  dxx        
 
 Vector   90  Occ=0.000000D+00  E= 2.690453D+00
              MO Center=  1.1D+00,  1.3D-01, -3.6D-03, r^2= 2.5D+00
   Bfn.  Coefficient  Atom+Function         Bfn.  Coefficient  Atom+Function  
  ----- ------------  ---------------      ----- ------------  ---------------
    55      9.537035  2 O  s                 93     -8.848421  3 H  s          
    10      8.630516  1 C  s                168     -6.659904  7 H  s          
   101      6.310812  3 H  px                59      5.423625  2 O  s          
    11      5.031995  1 C  px                57      4.067237  2 O  py         
    80     -3.594314  2 O  dzz               75     -3.561254  2 O  dxx        
 
 Vector   91  Occ=0.000000D+00  E= 2.747432D+00
              MO Center= -8.9D-01,  5.1D-02,  9.6D-04, r^2= 3.0D+00
   Bfn.  Coefficient  Atom+Function         Bfn.  Coefficient  Atom+Function  
  ----- ------------  ---------------      ----- ------------  ---------------
    10     11.876864  1 C  s                 92     -7.937088  3 H  s          
[...]
    10      4.292515  1 C  s                 39     -3.814021  1 C  fxyy       
    28     -3.610418  1 C  dyz              137      3.442135  5 H  py         
    25     -2.990372  1 C  dxy               36     -2.997117  1 C  fxxx       
   101      2.996413  3 H  px                29     -2.916028  1 C  dzz        
 
 Vector  172  Occ=0.000000D+00  E= 1.049016D+01
              MO Center= -1.4D+00, -2.3D-01,  2.1D-01, r^2= 1.3D+00
   Bfn.  Coefficient  Atom+Function         Bfn.  Coefficient  Atom+Function  
  ----- ------------  ---------------      ----- ------------  ---------------
     9      9.287796  1 C  pz               119      4.849151  4 H  pz         
    28     -4.670377  1 C  dyz               26     -4.117381  1 C  dxz        
   156      2.828663  6 H  py               157      2.675969  6 H  pz         
   128     -2.598355  4 H  dzz               27     -2.533509  1 C  dyy        
    40      2.398681  1 C  fxyz              29      2.308002  1 C  dzz        
 
 Vector  173  Occ=0.000000D+00  E= 1.053285D+01
              MO Center= -9.3D-01,  2.4D-01, -9.2D-02, r^2= 1.3D+00
   Bfn.  Coefficient  Atom+Function         Bfn.  Coefficient  Atom+Function  
  ----- ------------  ---------------      ----- ------------  ---------------
     7      8.323495  1 C  px                 8     -7.259656  1 C  py         
    10      6.170987  1 C  s                137     -4.594005  5 H  py         
   101      4.394711  3 H  px                28      3.424254  1 C  dyz        
    41     -3.374206  1 C  fxzz              27     -2.991617  1 C  dyy        
     6     -2.834512  1 C  s                 36     -2.636687  1 C  fxxx       
 
 Vector  174  Occ=0.000000D+00  E= 1.086068D+01
              MO Center= -1.3D+00, -4.6D-02, -5.8D-03, r^2= 1.5D+00
   Bfn.  Coefficient  Atom+Function         Bfn.  Coefficient  Atom+Function  
  ----- ------------  ---------------      ----- ------------  ---------------
     6      7.312011  1 C  s                 29      5.843483  1 C  dzz        
    27      5.159565  1 C  dyy              119      4.970161  4 H  pz         
    43     -4.630974  1 C  fyyz              44     -4.455402  1 C  fyzz       
   137      4.454552  5 H  py                10     -4.148377  1 C  s          
   157     -3.773206  6 H  pz               156     -3.681851  6 H  py         
 
 Vector  175  Occ=0.000000D+00  E= 1.441169D+01
              MO Center=  1.3D+00, -1.1D-01, -1.6D-04, r^2= 2.0D-01
   Bfn.  Coefficient  Atom+Function         Bfn.  Coefficient  Atom+Function  
  ----- ------------  ---------------      ----- ------------  ---------------
    65      1.922386  2 O  dxz               71     -1.129175  2 O  dxz        
   103      0.566165  3 H  pz                77      0.538061  2 O  dxz        
    67     -0.516956  2 O  dyz               13     -0.511632  1 C  pz         
    34      0.429054  1 C  dyz               54     -0.420517  2 O  pz         
    32     -0.394148  1 C  dxz               73      0.312522  2 O  dyz        
 
 Vector  176  Occ=0.000000D+00  E= 1.459639D+01
              MO Center=  1.3D+00, -8.4D-02,  2.7D-04, r^2= 1.9D-01
   Bfn.  Coefficient  Atom+Function         Bfn.  Coefficient  Atom+Function  
  ----- ------------  ---------------      ----- ------------  ---------------
    67      1.943113  2 O  dyz               73     -1.308976  2 O  dyz        
    65      0.519954  2 O  dxz               88     -0.449574  2 O  fyyz       
   184     -0.438140  7 H  dyz               71     -0.341088  2 O  dxz        
    79      0.250747  2 O  dyz               13     -0.248526  1 C  pz         
   103      0.217154  3 H  pz               176      0.215704  7 H  pz         
 
 Vector  177  Occ=0.000000D+00  E= 1.461969D+01
              MO Center=  1.3D+00, -9.1D-02, -2.2D-04, r^2= 2.1D-01
   Bfn.  Coefficient  Atom+Function         Bfn.  Coefficient  Atom+Function  
  ----- ------------  ---------------      ----- ------------  ---------------
    64      1.658766  2 O  dxy               70     -1.096303  2 O  dxy        
    55      0.948453  2 O  s                101     -0.715467  3 H  px         
    68      0.602719  2 O  dzz               56     -0.512294  2 O  px         
    74     -0.500442  2 O  dzz               14      0.490396  1 C  s          
    94     -0.471604  3 H  s                 10     -0.422094  1 C  s          
 
 Vector  178  Occ=0.000000D+00  E= 1.491767D+01
              MO Center=  1.3D+00, -1.0D-01,  2.9D-04, r^2= 2.5D-01
   Bfn.  Coefficient  Atom+Function         Bfn.  Coefficient  Atom+Function  
  ----- ------------  ---------------      ----- ------------  ---------------
    10      2.331894  1 C  s                101      1.592761  3 H  px         
    55      1.485067  2 O  s                 93     -1.105526  3 H  s          
    64     -1.074419  2 O  dxy               75     -1.019654  2 O  dxx        
    63     -0.931554  2 O  dxx              104     -0.858018  3 H  dxx        
    70      0.852694  2 O  dxy               74     -0.847836  2 O  dzz        
 
 Vector  179  Occ=0.000000D+00  E= 1.562163D+01
              MO Center=  1.3D+00, -5.4D-02,  2.0D-04, r^2= 2.2D-01
   Bfn.  Coefficient  Atom+Function         Bfn.  Coefficient  Atom+Function  
  ----- ------------  ---------------      ----- ------------  ---------------
    53      4.659994  2 O  py                89     -2.152211  2 O  fyzz       
    82     -2.114804  2 O  fxxy              55      2.024651  2 O  s          
    52      1.757217  2 O  px                87     -1.487074  2 O  fyyy       
   175      1.348753  7 H  py                66     -1.251471  2 O  dyy        
    49     -1.166737  2 O  py                72      1.141580  2 O  dyy        
 
 Vector  180  Occ=0.000000D+00  E= 1.644635D+01
              MO Center=  1.3D+00, -1.1D-01, -2.1D-04, r^2= 3.0D-01
   Bfn.  Coefficient  Atom+Function         Bfn.  Coefficient  Atom+Function  
  ----- ------------  ---------------      ----- ------------  ---------------
    54     12.853930  2 O  pz                83     -6.915628  2 O  fxxz       
    88     -6.922483  2 O  fyyz              90     -6.927947  2 O  fzzz       
    50     -3.462279  2 O  pz                58     -0.875812  2 O  pz         
    13     -0.449868  1 C  pz               103      0.352633  3 H  pz         
    32     -0.234358  1 C  dxz              112      0.224503  4 H  s          
 
 Vector  181  Occ=0.000000D+00  E= 1.662000D+01
              MO Center=  1.3D+00, -1.3D-01,  2.2D-04, r^2= 3.1D-01
   Bfn.  Coefficient  Atom+Function         Bfn.  Coefficient  Atom+Function  
  ----- ------------  ---------------      ----- ------------  ---------------
    52     11.687975  2 O  px                81     -6.379673  2 O  fxxx       
    84     -6.223278  2 O  fxyy              86     -6.244335  2 O  fxzz       
    53     -5.411600  2 O  py                48     -3.137022  2 O  px         
    87      2.987331  2 O  fyyy              89      2.926738  2 O  fyzz       
    82      2.909976  2 O  fxxy              49      1.462496  2 O  py         
 
 Vector  182  Occ=0.000000D+00  E= 1.691863D+01
              MO Center=  1.3D+00, -1.1D-01,  2.7D-04, r^2= 3.5D-01
   Bfn.  Coefficient  Atom+Function         Bfn.  Coefficient  Atom+Function  
  ----- ------------  ---------------      ----- ------------  ---------------
    53     10.656986  2 O  py                87     -6.469351  2 O  fyyy       
    82     -5.955284  2 O  fxxy              89     -5.946781  2 O  fyzz       
    52      5.323512  2 O  px                84     -3.025082  2 O  fxyy       
    81     -2.976732  2 O  fxxx              49     -2.933351  2 O  py         
    86     -2.820451  2 O  fxzz              10     -1.605461  1 C  s          
 
 Vector  183  Occ=0.000000D+00  E= 1.948340D+01
              MO Center=  1.3D+00, -6.1D-02,  3.5D-04, r^2= 5.2D-01
   Bfn.  Coefficient  Atom+Function         Bfn.  Coefficient  Atom+Function  
  ----- ------------  ---------------      ----- ------------  ---------------
    51     16.913777  2 O  s                 72     -7.482082  2 O  dyy        
    69     -6.893084  2 O  dxx               74     -6.784112  2 O  dzz        
    55      4.036746  2 O  s                 47     -3.918188  2 O  s          
    68     -3.642253  2 O  dzz               63     -3.576849  2 O  dxx        
    66     -3.367662  2 O  dyy               10      3.085776  1 C  s          
 
 Vector  184  Occ=0.000000D+00  E= 2.914766D+01
              MO Center= -1.2D+00,  7.8D-03,  4.1D-04, r^2= 9.1D-02
   Bfn.  Coefficient  Atom+Function         Bfn.  Coefficient  Atom+Function  
  ----- ------------  ---------------      ----- ------------  ---------------
     6      4.246395  1 C  s                  1     -2.007241  1 C  s          
     2      1.567578  1 C  s                 18     -1.141161  1 C  dxx        
    21     -1.129640  1 C  dyy               23     -1.128675  1 C  dzz        
    29     -1.108863  1 C  dzz               27     -1.093582  1 C  dyy        
    10      0.979249  1 C  s                 24     -0.966508  1 C  dxx        
 
 Vector  185  Occ=0.000000D+00  E= 6.117431D+01
              MO Center=  1.3D+00, -1.1D-01,  1.3D-04, r^2= 4.3D-02
   Bfn.  Coefficient  Atom+Function         Bfn.  Coefficient  Atom+Function  
  ----- ------------  ---------------      ----- ------------  ---------------
    51      5.335900  2 O  s                 46     -2.201559  2 O  s          
    47      1.593969  2 O  s                 69     -1.588103  2 O  dxx        
    72     -1.578440  2 O  dyy               74     -1.580797  2 O  dzz        
    63     -1.214930  2 O  dxx               66     -1.216672  2 O  dyy        
    68     -1.217933  2 O  dzz               55      0.184834  2 O  s          
 

   alpha - beta orbital overlaps 
   ----------------------------- 


   alpha      1      2      3      4      5      6      7      8      9     10
    beta      1      2      3      4      5      7      6      8      9     10
 overlap   1.000  1.000  0.999  0.999  0.967  0.739  0.838  0.882  1.000  0.993


   alpha     11     12     13     14     15     16     17     18     19     20
    beta     11     12     13     14     15     16     17     18     19     20
 overlap   1.000  0.994  0.966  0.969  0.993  0.981  0.985  0.992  0.999  0.997


   alpha     21     22     23     24     25     26     27     28     29     30
    beta     21     22     23     24     25     26     27     28     29     30
 overlap   0.994  0.996  0.995  0.991  0.983  0.986  0.997  0.981  0.996  0.957


   alpha     31     32     33     34     35     36     37     38     39     40
    beta     31     32     33     34     35     37     36     38     39     40
 overlap   0.986  0.968  0.841  0.848  0.999  0.725  0.658  0.739  0.971  0.971


   alpha     41     42     43     44     45     46     47     48     49     50
    beta     41     42     44     43     45     46     47     48     49     50
 overlap   0.998  0.994  0.981  0.994  0.999  1.000  0.998  0.999  0.999  0.999


   alpha     51     52     53     54     55     56     57     58     59     60
    beta     51     52     53     54     55     56     57     58     59     60
 overlap   0.999  0.998  0.998  0.998  0.998  0.993  0.977  0.959  0.937  0.958


   alpha     61     62     63     64     65     66     67     68     69     70
    beta     61     62     63     64     65     66     67     68     69     70
 overlap   0.955  0.999  0.999  0.998  0.999  0.998  0.996  0.995  0.999  0.999


   alpha     71     72     73     74     75     76     77     78     79     80
    beta     71     72     73     74     75     76     77     78     79     80
 overlap   0.999  1.000  1.000  0.998  0.998  1.000  0.999  1.000  0.997  0.992


   alpha     81     82     83     84     85     86     87     88     89     90
    beta     81     82     83     84     85     86     87     88     89     90
 overlap   0.992  0.999  1.000  0.999  0.998  0.998  0.995  0.994  0.995  0.997


   alpha     91     92     93     94     95     96     97     98     99    100
    beta     91     92     93     94     95     96     97     98     99    100
 overlap   0.966  0.963  0.999  0.999  0.999  0.999  0.998  0.999  0.760  0.760


   alpha    101    102    103    104    105    106    107    108    109    110
    beta    101    102    103    104    105    106    107    108    109    110
 overlap   0.999  0.992  0.981  0.983  0.955  0.957  0.998  0.939  0.909  0.966


   alpha    111    112    113    114    115    116    117    118    119    120
    beta    111    112    113    114    115    116    117    118    119    120
 overlap   0.998  0.997  0.998  0.987  0.989  0.982  0.970  0.979  0.992  0.991


   alpha    121    122    123    124    125    126    127    128    129    130
    beta    121    122    123    124    125    126    127    128    129    130
 overlap   0.991  0.986  0.986  0.999  1.000  0.999  0.998  0.998  0.966  0.967


   alpha    131    132    133    134    135    136    137    138    139    140
    beta    131    132    133    134    135    136    137    138    139    140
 overlap   0.999  0.998  0.999  0.987  0.990  0.999  1.000  0.999  1.000  1.000


   alpha    141    142    143    144    145    146    147    148    149    150
    beta    141    142    143    144    145    146    147    148    149    150
 overlap   1.000  1.000  1.000  1.000  1.000  0.999  1.000  0.999  1.000  1.000


   alpha    151    152    153    154    155    156    157    158    159    160
    beta    151    152    153    154    155    157    156    158    159    160
 overlap   1.000  1.000  0.999  0.950  0.929  0.936  0.647  0.757  0.977  0.999


   alpha    161    162    163    164    165    166    167    168    169    170
    beta    161    162    163    164    165    166    167    168    169    170
 overlap   0.995  0.993  0.998  0.997  0.995  0.994  1.000  0.989  0.979  0.987


   alpha    171    172    173    174    175    176    177    178    179    180
    beta    171    172    173    174    175    177    176    178    179    180
 overlap   0.995  0.999  0.994  0.998  1.000  0.993  0.993  1.000  1.000  1.000


   alpha    181    182    183    184    185
    beta    181    182    183    184    185
 overlap   1.000  1.000  1.000  1.000  1.000

     --------------------------
     Expectation value of S2:  
     --------------------------
      <S2> =      0.7561 (Exact =     0.7500)
 

 center of mass
 --------------
 x =   0.17459603 y =  -0.04660790 z =   0.00019861

 moments of inertia (a.u.)
 ------------------
          15.017072864849           3.920332127494           0.007159568069
           3.920332127494         195.076741319046           0.000012780306
           0.007159568069           0.000012780306         198.276246643679
 
     Multipole analysis of the density
     ---------------------------------
 
     L   x y z        total         alpha         beta         nuclear
     -   - - -        -----         -----         ----         -------
     0   0 0 0     -0.000000    -10.000000     -9.000000     19.000000
 
     1   1 0 0     -0.601221     -0.559033     -0.042188     -0.000000
     1   0 1 0      0.544663      0.331034      0.213629     -0.000000
     1   0 0 1      0.000151     -0.000467      0.000618     -0.000000
 
     2   2 0 0    -11.052028    -64.587592    -57.142577    110.678141
     2   1 1 0      1.806727      1.056394      0.750273      0.000060
     2   1 0 1      0.001032      0.000215      0.001035     -0.000218
     2   0 2 0     -9.626357     -9.379458     -9.022279      8.775380
     2   0 1 1      0.004758      0.000411      0.004335      0.000012
     2   0 0 2    -11.164273     -8.691047     -8.336130      5.862904
 

------------------------------------------------------------
EAF file 0: "./TS1.aoints.00" size=18874368 bytes
------------------------------------------------------------
               write      read    awrite     aread      wait
               -----      ----    ------     -----      ----
     calls:       36         1         0        35        35
   data(b): 1.89e+07  5.24e+05  0.00e+00  1.84e+07
   time(s): 0.00e+00  0.00e+00  0.00e+00  0.00e+00  0.00e+00
rate(mb/s): 0.00e+00  0.00e+00
------------------------------------------------------------


 Parallel integral file used    2370 records with       0 large values


 Task  times  cpu:       15.7s     wall:       17.6s
 
 
                                NWChem Input Module
                                -------------------
 
 
 Summary of allocated global arrays
-----------------------------------
  No active global arrays



                         GA Statistics for process    0
                         ------------------------------

       create   destroy   get      put      acc     scatter   gather  read&inc
calls:  511      511     2.88e+04 2342     1.56e+04    0        0      199     
number of processes/call 1.49e+00 2.07e+00 1.33e+00 0.00e+00 0.00e+00
bytes total:             3.50e+08 2.85e+07 1.78e+08 0.00e+00 0.00e+00 1.59e+03
bytes remote:            1.87e+08 2.05e+07 8.70e+07 0.00e+00 0.00e+00 0.00e+00
Max memory consumed for GA by this process: 2083400 bytes
 
MA_summarize_allocated_blocks: starting scan ...
MA_summarize_allocated_blocks: scan completed: 0 heap blocks, 0 stack blocks
MA usage statistics:

	allocation statistics:
					      heap	     stack
					      ----	     -----
	current number of blocks	         0	         0
	maximum number of blocks	        21	        53
	current total bytes		         0	         0
	maximum total bytes		 151001032	  30982648
	maximum total K-bytes		    151002	     30983
	maximum total M-bytes		       152	        31
 
 
                                     CITATION
                                     --------
                Please cite the following reference when publishing
                           results obtained with NWChem:
 
                 M. Valiev, E.J. Bylaska, N. Govind, K. Kowalski,
              T.P. Straatsma, H.J.J. van Dam, D. Wang, J. Nieplocha,
                        E. Apra, T.L. Windus, W.A. de Jong
                 "NWChem: a comprehensive and scalable open-source
                  solution for large scale molecular simulations"
                      Comput. Phys. Commun. 181, 1477 (2010)
                           doi:10.1016/j.cpc.2010.04.018
 
                                      AUTHORS
                                      -------
          E. Apra, E. J. Bylaska, W. A. de Jong, N. Govind, K. Kowalski,
       T. P. Straatsma, M. Valiev, H. J. J. van Dam, D. Wang, T. L. Windus,
        J. Hammond, J. Autschbach, K. Bhaskaran-Nair, J. Brabec, K. Lopata,
    S. A. Fischer, S. Krishnamoorthy, M. Jacquelin, W. Ma, M. Klemm, O. Villa,
      Y. Chen, V. Anisimov, F. Aquino, S. Hirata, M. T. Hackler, V. Konjkov,
            D. Mejia-Rodriguez, T. Risthaus, M. Malagoli, A. Marenich,
   A. Otero-de-la-Roza, J. Mullin, P. Nichols, R. Peverati, J. Pittner, Y. Zhao,
        P.-D. Fan, A. Fonari, M. J. Williamson, R. J. Harrison, J. R. Rehr,
      M. Dupuis, D. Silverstein, D. M. A. Smith, J. Nieplocha, V. Tipparaju,
    M. Krishnan, B. E. Van Kuiken, A. Vazquez-Mayagoitia, L. Jensen, M. Swart,
      Q. Wu, T. Van Voorhis, A. A. Auer, M. Nooijen, L. D. Crosby, E. Brown,
      G. Cisneros, G. I. Fann, H. Fruchtl, J. Garza, K. Hirao, R. A. Kendall,
      J. A. Nichols, K. Tsemekhman, K. Wolinski, J. Anchell, D. E. Bernholdt,
      P. Borowski, T. Clark, D. Clerc, H. Dachsel, M. J. O. Deegan, K. Dyall,
    D. Elwood, E. Glendening, M. Gutowski, A. C. Hess, J. Jaffe, B. G. Johnson,
     J. Ju, R. Kobayashi, R. Kutteh, Z. Lin, R. Littlefield, X. Long, B. Meng,
      T. Nakajima, S. Niu, L. Pollack, M. Rosing, K. Glaesemann, G. Sandrone,
      M. Stave, H. Taylor, G. Thomas, J. H. van Lenthe, A. T. Wong, Z. Zhang.

 Total times  cpu:       15.7s     wall:       17.9s
