 argument  1 = /storage/home/rabeet/work/nwc/bh6/nwtpss/TS3.nw
  NWChem w/ OpenMP: maximum threads =  1
                                         
                                         
 
 
              Northwest Computational Chemistry Package (NWChem) 6.8
              ------------------------------------------------------
 
 
                    Environmental Molecular Sciences Laboratory
                       Pacific Northwest National Laboratory
                                Richland, WA 99352
 
                              Copyright (c) 1994-2018
                       Pacific Northwest National Laboratory
                            Battelle Memorial Institute
 
             NWChem is an open-source computational chemistry package
                        distributed under the terms of the
                      Educational Community License (ECL) 2.0
             A copy of the license is included with this distribution
                              in the LICENSE.TXT file
 
                                  ACKNOWLEDGMENT
                                  --------------

            This software and its documentation were developed at the
            EMSL at Pacific Northwest National Laboratory, a multiprogram
            national laboratory, operated for the U.S. Department of Energy
            by Battelle under Contract Number DE-AC05-76RL01830. Support
            for this work was provided by the Department of Energy Office
            of Biological and Environmental Research, Office of Basic
            Energy Sciences, and the Office of Advanced Scientific Computing.


           Job information
           ---------------

    hostname        = r8n4.niserhpc.org
    program         = /home/rabeet/nwchem-6.8/bin/LINUX64/nwchem
    date            = Sun Oct 27 08:44:45 2019

    compiled        = Fri_Jun_28_18:24:12_2019
    source          = /home/rabeet/nwchem-6.8
    nwchem branch   = Development
    nwchem revision = N/A
    ga revision     = 5.6.5
    use scalapack   = T
    input           = /storage/home/rabeet/work/nwc/bh6/nwtpss/TS3.nw
    prefix          = TS3.
    data base       = ./TS3.db
    status          = startup
    nproc           =       16
    time left       =     -1s



           Memory information
           ------------------

    heap     =   13107194 doubles =    100.0 Mbytes
    stack    =   13107199 doubles =    100.0 Mbytes
    global   =   26214400 doubles =    200.0 Mbytes (distinct from heap & stack)
    total    =   52428793 doubles =    400.0 Mbytes
    verify   = yes
    hardfail = no 


           Directory information
           ---------------------
 
  0 permanent = .
  0 scratch   = .
 
 
 
 
                                NWChem Input Module
                                -------------------
 
 

 Scaling coordinates for geometry "geometry" by  1.889725989
 (inverse scale =  0.529177249)


          ------
          auto-z
          ------
  autoz: The atoms group into disjoint clusters
 cluster   1:    1    2    3 
 cluster   2:    4 
 Connecting clusters   1   2 via atoms    3    4 r = 1.15
  autoz: regenerating connections with new bonds
  no constraints, skipping   0.000000000000000E+000
  no constraints, skipping   0.000000000000000E+000
 
 
                             Geometry "geometry" -> ""
                             -------------------------
 
 Output coordinates in angstroms (scale by  1.889725989 to convert to a.u.)
 
  No.       Tag          Charge          X              Y              Z
 ---- ---------------- ---------- -------------- -------------- --------------
    1 H                    1.0000     1.26210000    -0.22009684     0.00000000
    2 S                   16.0000     0.00000000     0.22315316     0.00000000
    3 H                    1.0000    -0.50058000    -1.11544684     0.00000000
    4 H                    1.0000    -0.76152000    -2.23490684     0.00000000
 
      Atomic Mass 
      ----------- 
 
      H                  1.007825
      S                 31.972070
 

 Effective nuclear repulsion energy (a.u.)      16.4575511934

            Nuclear Dipole moment (a.u.) 
            ----------------------------
        X                 Y               Z
 ---------------- ---------------- ----------------
    -0.0000000000     0.0000000000     0.0000000000
 


                                Z-matrix (autoz)
                                -------- 

 Units are Angstrom for bonds and degrees for angles
 
      Type          Name      I     J     K     L     M      Value
      ----------- --------  ----- ----- ----- ----- ----- ----------
    1 Stretch                  1     2                       1.33767
    2 Stretch                  2     3                       1.42914
    3 Stretch                  3     4                       1.14947
    4 Bend                     1     2     3                91.15238
    5 Bend                     2     3     4               172.61737
    6 Torsion                  1     2     3     4           0.00000
 
 
            XYZ format geometry
            -------------------
     4
 geometry
 H                     1.26210000    -0.22009684     0.00000000
 S                     0.00000000     0.22315316     0.00000000
 H                    -0.50058000    -1.11544684     0.00000000
 H                    -0.76152000    -2.23490684     0.00000000
 
 ==============================================================================
                                internuclear distances
 ------------------------------------------------------------------------------
       center one      |      center two      | atomic units |  angstroms
 ------------------------------------------------------------------------------
    2 S                |   1 H                |     2.52783  |     1.33767
    3 H                |   2 S                |     2.70068  |     1.42914
 ------------------------------------------------------------------------------
                         number of included internuclear distances:          2
 ==============================================================================



 ==============================================================================
                                 internuclear angles
 ------------------------------------------------------------------------------
        center 1       |       center 2       |       center 3       |  degrees
 ------------------------------------------------------------------------------
    1 H                |   2 S                |   3 H                |    91.15
 ------------------------------------------------------------------------------
                            number of included internuclear angles:          1
 ==============================================================================





 Summary of "ao basis" -> "" (cartesian)
 ------------------------------------------------------------------------------
       Tag                 Description            Shells   Functions and Types
 ---------------- ------------------------------  ------  ---------------------
 *                     6-311++G(3df,3pd)              on all atoms 


 
                                 NWChem DFT Module
                                 -----------------
 
 
                      Basis "ao basis" -> "ao basis" (cartesian)
                      -----
  H (Hydrogen)
  ------------
            Exponent  Coefficients 
       -------------- ---------------------------------------------------------
  1 S  3.38650000E+01  0.025494
  1 S  5.09479000E+00  0.190373
  1 S  1.15879000E+00  0.852161
 
  2 S  3.25840000E-01  1.000000
 
  3 S  1.02741000E-01  1.000000
 
  4 S  3.60000000E-02  1.000000
 
  5 P  3.00000000E+00  1.000000
 
  6 P  7.50000000E-01  1.000000
 
  7 P  1.87500000E-01  1.000000
 
  8 D  1.00000000E+00  1.000000
 
  S (Sulphur)
  -----------
            Exponent  Coefficients 
       -------------- ---------------------------------------------------------
  1 S  9.34134000E+04  0.000743
  1 S  1.39617000E+04  0.005793
  1 S  3.16991000E+03  0.029954
  1 S  9.02456000E+02  0.119028
  1 S  2.97158000E+02  0.368432
  1 S  1.08702000E+02  0.577299
 
  2 S  1.08702000E+02  0.143186
  2 S  4.31553000E+01  0.624465
  2 S  1.81079000E+01  0.283366
 
  3 S  5.56009000E+00  1.000000
 
  4 S  2.13183000E+00  1.000000
 
  5 S  4.20403000E-01  1.000000
 
  6 S  1.36045000E-01  1.000000
 
  7 P  4.95040000E+02  0.008309
  7 P  1.17221000E+02  0.064024
  7 P  3.77749000E+01  0.277614
  7 P  1.40584000E+01  0.745076
 
  8 P  5.56574000E+00  0.613712
  8 P  2.26297000E+00  0.443818
 
  9 P  8.07994000E-01  1.000000
 
 10 P  2.77460000E-01  1.000000
 
 11 P  7.71410000E-02  1.000000
 
 12 S  4.05000000E-02  1.000000
 
 13 P  4.05000000E-02  1.000000
 
 14 D  2.60000000E+00  1.000000
 
 15 D  6.50000000E-01  1.000000
 
 16 D  1.62500000E-01  1.000000
 
 17 F  5.50000000E-01  1.000000
 


 Summary of "ao basis" -> "ao basis" (cartesian)
 ------------------------------------------------------------------------------
       Tag                 Description            Shells   Functions and Types
 ---------------- ------------------------------  ------  ---------------------
 H                     6-311++G(3df,3pd)             8       19   4s3p1d
 S                     6-311++G(3df,3pd)            17       53   7s6p3d1f




 Summary of "ao basis" -> "ao basis" (cartesian)
 ------------------------------------------------------------------------------
       Tag                 Description            Shells   Functions and Types
 ---------------- ------------------------------  ------  ---------------------
 H                     6-311++G(3df,3pd)             8       19   4s3p1d
 S                     6-311++G(3df,3pd)            17       53   7s6p3d1f


  Caching 1-el integrals 
 
            General Information
            -------------------
          SCF calculation type: DFT
          Wavefunction type:  spin polarized.
          No. of atoms     :     4
          No. of electrons :    19
           Alpha electrons :    10
            Beta electrons :     9
          Charge           :     0
          Spin multiplicity:     2
          Use of symmetry is: off; symmetry adaption is: off
          Maximum number of iterations: ***
          AO basis - number of functions:   110
                     number of shells:    41
          Convergence on energy requested:  1.00D-06
          Convergence on density requested:  1.00D-05
          Convergence on gradient requested:  5.00D-04
 
              XC Information
              --------------
                  TPSS metaGGA Exchange Functional  1.000          
             TPSS03 metaGGA Correlation Functional  1.000          
 
             Grid Information
             ----------------
          Grid used for XC integration:  medium    
          Radial quadrature: Mura-Knowles        
          Angular quadrature: Lebedev. 
          Tag              B.-S. Rad. Rad. Pts. Rad. Cut. Ang. Pts.
          ---              ---------- --------- --------- ---------
          H                   0.35       45          13.0       434
          S                   1.00       88          12.0       590
          Grid pruning is: on 
          Number of quadrature shells:   223
          Spatial weights used:  Erf1
 
          Convergence Information
          -----------------------
          Convergence aids based upon iterative change in 
          total energy or number of iterations. 
          Levelshifting, if invoked, occurs when the 
          HOMO/LUMO gap drops below (HL_TOL):  1.00D-02
          DIIS, if invoked, will attempt to extrapolate 
          using up to (NFOCK): 10 stored Fock matrices.

                    Damping( 0%)  Levelshifting(0.5)       DIIS
                  --------------- ------------------- ---------------
          dE  on:    start            ASAP                start   
          dE off:    2 iters        *** iters           *** iters 

 
      Screening Tolerance Information
      -------------------------------
          Density screening/tol_rho:  1.00D-10
          AO Gaussian exp screening on grid/accAOfunc:  14
          CD Gaussian exp screening on grid/accCDfunc:  20
          XC Gaussian exp screening on grid/accXCfunc:  20
          Schwarz screening/accCoul:  1.00D-08

 
      Superposition of Atomic Density Guess
      -------------------------------------
 
 Sum of atomic energies:        -398.97970550
 
      Non-variational initial energy
      ------------------------------

 Total energy =    -399.042313
 1-e energy   =    -583.289605
 2-e energy   =     167.789741
 HOMO         =      -0.207979
 LUMO         =       0.037684
 
   Time after variat. SCF:      0.7
   Time prior to 1st pass:      0.7

 Integral file          = ./TS3.aoints.00
 Record size in doubles =    65536    No. of integs per rec  =    43688
 Max. records in memory =       38    Max. records in file   =  8903802
 No. of bits per label  =        8    No. of bits per value  =       64


 #quartets = 3.443D+05 #integrals = 8.554D+06 #direct =  0.0% #cached =100.0%


File balance: exchanges=    16  moved=    16  time=   0.0


 Grid_pts file          = ./TS3.gridpts.00
 Record size in doubles =  12289        No. of grid_pts per rec  =   3070
 Max. records in memory =      4        Max. recs in file   =  47483114


           Memory utilization after 1st SCF pass: 
           Heap Space remaining (MW):       10.56            10563474
          Stack Space remaining (MW):       13.11            13106156

   convergence    iter        energy       DeltaE   RMS-Dens  Diis-err    time
 ---------------- ----- ----------------- --------- --------- ---------  ------
 d= 0,ls=0.0,diis     1   -399.9085245057 -4.16D+02  3.20D-03  1.71D-01     2.7
                                                     2.32D-03  1.56D-01
 d= 0,ls=0.0,diis     2   -399.9236003366 -1.51D-02  2.14D-03  2.43D-02     3.0
                                                     1.94D-03  2.27D-02
 d= 0,ls=0.0,diis     3   -399.9227728212  8.28D-04  1.10D-03  2.91D-02     3.2
                                                     9.96D-04  2.77D-02
 d= 0,ls=0.0,diis     4   -399.9408086809 -1.80D-02  1.62D-04  3.14D-04     3.5
                                                     1.55D-04  2.95D-04
 d= 0,ls=0.0,diis     5   -399.9409521415 -1.43D-04  5.23D-05  3.95D-05     3.8
                                                     4.31D-05  4.07D-05
  Resetting Diis
 d= 0,ls=0.0,diis     6   -399.9409741084 -2.20D-05  1.86D-05  2.35D-06     4.0
                                                     1.61D-05  1.64D-06
 d= 0,ls=0.0,diis     7   -399.9409755210 -1.41D-06  1.44D-05  7.72D-07     4.3
                                                     1.45D-05  8.09D-07
 d= 0,ls=0.0,diis     8   -399.9409750482  4.73D-07  8.71D-06  1.64D-06     4.5
                                                     8.05D-06  1.48D-06


         Total DFT energy =     -399.940975048158
      One electron energy =     -584.290858746325
           Coulomb energy =      194.638380910508
          Exchange energy =      -26.058385080538
       Correlation energy =       -0.687663325166
 Nuclear repulsion energy =       16.457551193363

 Numeric. integr. density =       19.000003080748

     Total iterative time =      3.9s


 
                    DFT Final Alpha Molecular Orbital Analysis
                    ------------------------------------------
 
 Vector    1  Occ=1.000000D+00  E=-8.836400D+01
              MO Center=  2.7D-06,  2.2D-01,  1.3D-17, r^2= 3.6D-03
   Bfn.  Coefficient  Atom+Function         Bfn.  Coefficient  Atom+Function  
  ----- ------------  ---------------      ----- ------------  ---------------
    21      0.653575  2 S  s                 20      0.411427  2 S  s          
 
 Vector    2  Occ=1.000000D+00  E=-7.752072D+00
              MO Center=  1.0D-03,  2.2D-01, -9.2D-16, r^2= 7.7D-02
   Bfn.  Coefficient  Atom+Function         Bfn.  Coefficient  Atom+Function  
  ----- ------------  ---------------      ----- ------------  ---------------
    23      0.589126  2 S  s                 22      0.512454  2 S  s          
    21     -0.320408  2 S  s                 24      0.125015  2 S  s          
    20     -0.119408  2 S  s                 25     -0.052176  2 S  s          
 
 Vector    3  Occ=1.000000D+00  E=-5.734326D+00
              MO Center=  4.5D-04,  2.2D-01, -7.3D-17, r^2= 6.9D-02
   Bfn.  Coefficient  Atom+Function         Bfn.  Coefficient  Atom+Function  
  ----- ------------  ---------------      ----- ------------  ---------------
    30      0.554196  2 S  py                29      0.438533  2 S  px         
    27      0.296055  2 S  py                26      0.234170  2 S  px         
    33      0.044531  2 S  py                32      0.035337  2 S  px         
 
 Vector    4  Occ=1.000000D+00  E=-5.730095D+00
              MO Center= -1.2D-03,  2.2D-01,  2.7D-16, r^2= 6.9D-02
   Bfn.  Coefficient  Atom+Function         Bfn.  Coefficient  Atom+Function  
  ----- ------------  ---------------      ----- ------------  ---------------
    29      0.554363  2 S  px                30     -0.438551  2 S  py         
    26      0.295992  2 S  px                27     -0.234254  2 S  py         
    32      0.044590  2 S  px                33     -0.035263  2 S  py         
 
 Vector    5  Occ=1.000000D+00  E=-5.721739D+00
              MO Center=  1.2D-04,  2.2D-01,  5.4D-16, r^2= 6.9D-02
   Bfn.  Coefficient  Atom+Function         Bfn.  Coefficient  Atom+Function  
  ----- ------------  ---------------      ----- ------------  ---------------
    31      0.707078  2 S  pz                28      0.377798  2 S  pz         
    34      0.056790  2 S  pz         
 
 Vector    6  Occ=1.000000D+00  E=-6.981417D-01
              MO Center=  1.4D-01, -7.6D-02, -4.9D-15, r^2= 1.1D+00
   Bfn.  Coefficient  Atom+Function         Bfn.  Coefficient  Atom+Function  
  ----- ------------  ---------------      ----- ------------  ---------------
    24      0.579497  2 S  s                 25      0.508977  2 S  s          
    23     -0.341266  2 S  s                 22     -0.202336  2 S  s          
     2      0.100050  1 H  s                 21      0.092050  2 S  s          
    74      0.091756  3 H  s                  1      0.090270  1 H  s          
    73      0.079048  3 H  s                 62     -0.064887  2 S  dzz        
 
 Vector    7  Occ=1.000000D+00  E=-4.463317D-01
              MO Center= -1.2D-01, -7.9D-01,  1.6D-15, r^2= 2.0D+00
   Bfn.  Coefficient  Atom+Function         Bfn.  Coefficient  Atom+Function  
  ----- ------------  ---------------      ----- ------------  ---------------
    93      0.234492  4 H  s                 74      0.232372  3 H  s          
    35     -0.188050  2 S  px                 2     -0.148447  1 H  s          
    73      0.148271  3 H  s                 36     -0.143329  2 S  py         
    32     -0.142264  2 S  px                25     -0.136515  2 S  s          
    92      0.119706  4 H  s                 94      0.115069  4 H  s          
 
 Vector    8  Occ=1.000000D+00  E=-3.654170D-01
              MO Center=  5.0D-02, -2.2D-03, -2.9D-15, r^2= 2.0D+00
   Bfn.  Coefficient  Atom+Function         Bfn.  Coefficient  Atom+Function  
  ----- ------------  ---------------      ----- ------------  ---------------
    25      0.401614  2 S  s                 35     -0.278738  2 S  px         
    24      0.267935  2 S  s                  2     -0.235608  1 H  s          
    36      0.226112  2 S  py                32     -0.177241  2 S  px         
    23     -0.155894  2 S  s                  1     -0.136246  1 H  s          
    93     -0.136577  4 H  s                 33      0.124238  2 S  py         
 
 Vector    9  Occ=1.000000D+00  E=-2.597965D-01
              MO Center= -3.9D-01, -1.1D+00, -2.5D-15, r^2= 3.0D+00
   Bfn.  Coefficient  Atom+Function         Bfn.  Coefficient  Atom+Function  
  ----- ------------  ---------------      ----- ------------  ---------------
    93      0.377939  4 H  s                 36      0.374594  2 S  py         
    94      0.335386  4 H  s                 33      0.210534  2 S  py         
    92      0.187566  4 H  s                 39      0.154801  2 S  py         
    30     -0.140973  2 S  py                75     -0.115609  3 H  s          
    35      0.102795  2 S  px                25      0.079384  2 S  s          
 
 Vector   10  Occ=1.000000D+00  E=-2.397769D-01
              MO Center=  2.7D-02,  1.7D-01,  1.2D-14, r^2= 1.5D+00
   Bfn.  Coefficient  Atom+Function         Bfn.  Coefficient  Atom+Function  
  ----- ------------  ---------------      ----- ------------  ---------------
    37      0.623620  2 S  pz                40      0.286165  2 S  pz         
    34      0.270926  2 S  pz                31     -0.196052  2 S  pz         
    28     -0.103236  2 S  pz                85      0.033056  3 H  pz         
    13      0.027880  1 H  pz                72     -0.025935  2 S  fzzz       
    55     -0.025250  2 S  dyz        
 
 Vector   11  Occ=0.000000D+00  E=-2.577862D-02
              MO Center=  4.5D-01, -4.0D-01, -1.8D-13, r^2= 6.7D+00
   Bfn.  Coefficient  Atom+Function         Bfn.  Coefficient  Atom+Function  
  ----- ------------  ---------------      ----- ------------  ---------------
     4      1.539282  1 H  s                 41     -0.754238  2 S  s          
    42     -0.603504  2 S  px                95      0.497232  4 H  s          
    35     -0.417109  2 S  px                76     -0.395836  3 H  s          
     3      0.318663  1 H  s                 75     -0.244625  3 H  s          
    38     -0.194498  2 S  px                24     -0.171677  2 S  s          
 
 Vector   12  Occ=0.000000D+00  E= 5.619698D-03
              MO Center=  3.9D-01, -3.1D-01,  2.2D-12, r^2= 1.2D+01
   Bfn.  Coefficient  Atom+Function         Bfn.  Coefficient  Atom+Function  
  ----- ------------  ---------------      ----- ------------  ---------------
    76      4.610193  3 H  s                 95     -2.614146  4 H  s          
    41     -2.589696  2 S  s                 43      1.318401  2 S  py         
     4      0.644707  1 H  s                 42      0.495623  2 S  px         
    25     -0.296624  2 S  s                 39     -0.257274  2 S  py         
    94      0.232744  4 H  s                 60      0.203919  2 S  dyy        
 
 Vector   13  Occ=0.000000D+00  E= 3.168087D-02
              MO Center=  7.4D-02, -1.7D+00,  4.4D-12, r^2= 1.1D+01
   Bfn.  Coefficient  Atom+Function         Bfn.  Coefficient  Atom+Function  
  ----- ------------  ---------------      ----- ------------  ---------------
    76      3.240403  3 H  s                 95     -2.792923  4 H  s          
     3      1.448030  1 H  s                 41     -1.426751  2 S  s          
    25     -0.853746  2 S  s                 94      0.846889  4 H  s          
     4     -0.784765  1 H  s                 38     -0.463204  2 S  px         
    39      0.446892  2 S  py                35     -0.376609  2 S  px         
 
 Vector   14  Occ=0.000000D+00  E= 3.374893D-02
              MO Center= -7.1D-01,  1.9D-01,  1.2D-11, r^2= 1.2D+01
   Bfn.  Coefficient  Atom+Function         Bfn.  Coefficient  Atom+Function  
  ----- ------------  ---------------      ----- ------------  ---------------
    76      4.381573  3 H  s                 43      1.691221  2 S  py         
     4     -1.331439  1 H  s                 41     -1.334449  2 S  s          
    39     -0.917228  2 S  py                95     -0.803373  4 H  s          
    75     -0.756437  3 H  s                 25      0.437042  2 S  s          
    94     -0.391304  4 H  s                 38      0.352096  2 S  px         
 
 Vector   15  Occ=0.000000D+00  E= 4.603814D-02
              MO Center= -2.2D-02,  1.0D-01, -1.5D-11, r^2= 1.2D+01
   Bfn.  Coefficient  Atom+Function         Bfn.  Coefficient  Atom+Function  
  ----- ------------  ---------------      ----- ------------  ---------------
    44      1.695385  2 S  pz                40     -1.013082  2 S  pz         
    34     -0.161352  2 S  pz                65     -0.103390  2 S  fxxz       
    70     -0.101330  2 S  fyyz              72     -0.093306  2 S  fzzz       
   104      0.077233  4 H  pz                37      0.075097  2 S  pz         
    31      0.062707  2 S  pz                13      0.049325  1 H  pz         
 
 Vector   16  Occ=0.000000D+00  E= 7.222021D-02
              MO Center= -3.5D-01, -7.8D-01, -5.3D-12, r^2= 1.3D+01
   Bfn.  Coefficient  Atom+Function         Bfn.  Coefficient  Atom+Function  
  ----- ------------  ---------------      ----- ------------  ---------------
    76      5.379773  3 H  s                 95     -3.496002  4 H  s          
    41     -1.219445  2 S  s                  3     -1.210438  1 H  s          
    43     -1.083642  2 S  py                38      0.733508  2 S  px         
    39      0.484789  2 S  py                75     -0.443268  3 H  s          
    25      0.394299  2 S  s                 35      0.322000  2 S  px         
 
 Vector   17  Occ=0.000000D+00  E= 8.738655D-02
              MO Center=  5.6D-02, -5.4D-01,  1.5D-12, r^2= 9.4D+00
   Bfn.  Coefficient  Atom+Function         Bfn.  Coefficient  Atom+Function  
  ----- ------------  ---------------      ----- ------------  ---------------
    41      6.008155  2 S  s                 75     -3.357630  3 H  s          
     4     -3.097540  1 H  s                 39     -1.822173  2 S  py         
    94      1.663964  4 H  s                 42      1.647315  2 S  px         
    76     -1.643332  3 H  s                 25      0.779883  2 S  s          
     3     -0.757266  1 H  s                 38     -0.640727  2 S  px         
 
 Vector   18  Occ=0.000000D+00  E= 1.024455D-01
              MO Center=  2.6D-01,  2.0D-01,  2.5D-14, r^2= 1.4D+01
   Bfn.  Coefficient  Atom+Function         Bfn.  Coefficient  Atom+Function  
  ----- ------------  ---------------      ----- ------------  ---------------
    76      9.864263  3 H  s                  4     -6.803317  1 H  s          
    42      4.843405  2 S  px                95     -2.726255  4 H  s          
    38     -2.277264  2 S  px                 3      2.168630  1 H  s          
    43      1.069662  2 S  py                41     -0.880659  2 S  s          
    94     -0.733812  4 H  s                 58      0.577107  2 S  dxy        
 
 Vector   19  Occ=0.000000D+00  E= 1.206848D-01
              MO Center=  2.0D-01, -3.8D-01, -1.0D-13, r^2= 1.1D+01
   Bfn.  Coefficient  Atom+Function         Bfn.  Coefficient  Atom+Function  
  ----- ------------  ---------------      ----- ------------  ---------------
    76     12.954407  3 H  s                 41    -10.281308  2 S  s          
    95     -5.069454  4 H  s                 43      3.459177  2 S  py         
     4      1.216083  1 H  s                 42      1.218369  2 S  px         
    75     -1.108590  3 H  s                 39     -1.022865  2 S  py         
    94      0.777290  4 H  s                 25      0.696127  2 S  s          
 
 Vector   20  Occ=0.000000D+00  E= 1.439255D-01
              MO Center= -2.9D-01, -4.9D-01, -7.5D-15, r^2= 9.9D+00
   Bfn.  Coefficient  Atom+Function         Bfn.  Coefficient  Atom+Function  
  ----- ------------  ---------------      ----- ------------  ---------------
    76     18.225322  3 H  s                 41    -12.089445  2 S  s          
    95     -6.293979  4 H  s                 43      3.826945  2 S  py         
    42      2.761455  2 S  px                 3      2.177670  1 H  s          
     4     -1.825979  1 H  s                 38     -1.509673  2 S  px         
    60      0.559462  2 S  dyy               75     -0.413786  3 H  s          
 
 Vector   21  Occ=0.000000D+00  E= 1.470920D-01
              MO Center= -2.3D-01, -5.5D-01,  1.1D-14, r^2= 3.8D+00
   Bfn.  Coefficient  Atom+Function         Bfn.  Coefficient  Atom+Function  
  ----- ------------  ---------------      ----- ------------  ---------------
    61      0.899092  2 S  dyz              104     -0.454367  4 H  pz         
    59      0.387848  2 S  dxz               44      0.325131  2 S  pz         
    55      0.253118  2 S  dyz               40     -0.154961  2 S  pz         
    85     -0.136709  3 H  pz                53      0.121509  2 S  dxz        
    37      0.109681  2 S  pz                49      0.074759  2 S  dyz        
 
 Vector   22  Occ=0.000000D+00  E= 1.799191D-01
              MO Center=  2.3D-01,  1.4D-01, -2.7D-15, r^2= 2.7D+00
   Bfn.  Coefficient  Atom+Function         Bfn.  Coefficient  Atom+Function  
  ----- ------------  ---------------      ----- ------------  ---------------
    59      1.007375  2 S  dxz               61     -0.446838  2 S  dyz        
    13      0.353984  1 H  pz                53      0.328045  2 S  dxz        
    37     -0.188891  2 S  pz                55     -0.135583  2 S  dyz        
    40     -0.110014  2 S  pz                47      0.096426  2 S  dxz        
   104      0.056034  4 H  pz                65      0.047169  2 S  fxxz       
 
 Vector   23  Occ=0.000000D+00  E= 2.579821D-01
              MO Center= -4.4D-01,  9.0D-02,  1.4D-12, r^2= 9.5D+00
   Bfn.  Coefficient  Atom+Function         Bfn.  Coefficient  Atom+Function  
  ----- ------------  ---------------      ----- ------------  ---------------
    39     -4.564283  2 S  py                25      4.445163  2 S  s          
    75     -4.078213  3 H  s                  3     -3.422548  1 H  s          
    41      2.864747  2 S  s                 84     -1.911485  3 H  py         
    76     -1.791081  3 H  s                 95      1.589958  4 H  s          
    43      1.257478  2 S  py                36     -1.064259  2 S  py         
 
 Vector   24  Occ=0.000000D+00  E= 2.657709D-01
              MO Center=  1.6D-02, -2.8D-01,  8.5D-13, r^2= 9.2D+00
   Bfn.  Coefficient  Atom+Function         Bfn.  Coefficient  Atom+Function  
  ----- ------------  ---------------      ----- ------------  ---------------
    42      1.929017  2 S  px                94     -1.935012  4 H  s          
    38     -1.748266  2 S  px                 3     -1.555038  1 H  s          
    41      1.558792  2 S  s                 76     -1.422224  3 H  s          
    95      1.401792  4 H  s                 75      1.346392  3 H  s          
    35      1.079255  2 S  px                84     -0.859119  3 H  py         
 
 Vector   25  Occ=0.000000D+00  E= 2.780799D-01
              MO Center= -4.7D-02, -6.7D-01,  2.0D-13, r^2= 7.3D+00
   Bfn.  Coefficient  Atom+Function         Bfn.  Coefficient  Atom+Function  
  ----- ------------  ---------------      ----- ------------  ---------------
    41      2.603945  2 S  s                 43     -1.959659  2 S  py         
    39      1.856477  2 S  py                94      1.463557  4 H  s          
     3     -1.381594  1 H  s                 76     -1.146155  3 H  s          
    25     -0.975424  2 S  s                 84      0.923150  3 H  py         
    95     -0.891505  4 H  s                 35      0.793613  2 S  px         
 
 Vector   26  Occ=0.000000D+00  E= 2.857250D-01
              MO Center= -2.0D-01, -4.6D-01, -3.4D-12, r^2= 7.2D+00
   Bfn.  Coefficient  Atom+Function         Bfn.  Coefficient  Atom+Function  
  ----- ------------  ---------------      ----- ------------  ---------------
    40      1.988447  2 S  pz                44     -1.413185  2 S  pz         
    37     -1.158083  2 S  pz               104      0.721400  4 H  pz         
    61      0.667335  2 S  dyz               59      0.355413  2 S  dxz        
    70      0.279660  2 S  fyyz              65      0.272937  2 S  fxxz       
    72      0.268561  2 S  fzzz              55      0.252276  2 S  dyz        
 
 Vector   27  Occ=0.000000D+00  E= 3.071916D-01
              MO Center= -3.1D-01, -8.9D-01,  8.8D-13, r^2= 1.1D+01
   Bfn.  Coefficient  Atom+Function         Bfn.  Coefficient  Atom+Function  
  ----- ------------  ---------------      ----- ------------  ---------------
    75      6.353182  3 H  s                 94     -5.113623  4 H  s          
    38      3.430490  2 S  px                 3     -3.149708  1 H  s          
    39      3.136142  2 S  py                42     -1.726551  2 S  px         
     4      1.707303  1 H  s                 41     -1.670401  2 S  s          
    43     -1.342203  2 S  py                25      1.316789  2 S  s          
 
 Vector   28  Occ=0.000000D+00  E= 3.115103D-01
              MO Center= -2.6D-01, -5.6D-01,  1.0D-13, r^2= 6.6D+00
   Bfn.  Coefficient  Atom+Function         Bfn.  Coefficient  Atom+Function  
  ----- ------------  ---------------      ----- ------------  ---------------
    40      2.414185  2 S  pz                37     -1.635192  2 S  pz         
    44     -1.337740  2 S  pz                61     -0.656150  2 S  dyz        
   104     -0.587037  4 H  pz                72      0.390144  2 S  fzzz       
    65      0.376993  2 S  fxxz              70      0.364833  2 S  fyyz       
    59     -0.275986  2 S  dxz               55     -0.154692  2 S  dyz        
 
 Vector   29  Occ=0.000000D+00  E= 3.198372D-01
              MO Center= -4.1D-01, -5.6D-01,  4.6D-13, r^2= 7.2D+00
   Bfn.  Coefficient  Atom+Function         Bfn.  Coefficient  Atom+Function  
  ----- ------------  ---------------      ----- ------------  ---------------
    41      8.582240  2 S  s                 76     -8.176101  3 H  s          
     3     -5.509467  1 H  s                 75     -4.090010  3 H  s          
    38      3.319867  2 S  px                25      2.636363  2 S  s          
    43     -2.528751  2 S  py                94      2.190882  4 H  s          
    42     -2.057494  2 S  px                39     -1.647424  2 S  py         
 
 Vector   30  Occ=0.000000D+00  E= 3.728092D-01
              MO Center=  2.9D-01, -4.8D-01, -6.5D-14, r^2= 9.1D+00
   Bfn.  Coefficient  Atom+Function         Bfn.  Coefficient  Atom+Function  
  ----- ------------  ---------------      ----- ------------  ---------------
    76      7.037059  3 H  s                 75     -6.513732  3 H  s          
     3      6.161628  1 H  s                 38     -5.959723  2 S  px         
     4     -5.743510  1 H  s                 42      4.466783  2 S  px         
    84     -2.611697  3 H  py                25      2.275845  2 S  s          
    36     -2.181263  2 S  py                39     -1.796298  2 S  py         
 
 Vector   31  Occ=0.000000D+00  E= 4.305293D-01
              MO Center=  1.8D-01, -6.4D-01, -2.3D-15, r^2= 6.4D+00
   Bfn.  Coefficient  Atom+Function         Bfn.  Coefficient  Atom+Function  
  ----- ------------  ---------------      ----- ------------  ---------------
    76      8.433242  3 H  s                 41     -5.961977  2 S  s          
    75     -5.198324  3 H  s                 95     -3.639399  4 H  s          
    94      3.443479  4 H  s                 43      1.763557  2 S  py         
    62      1.691627  2 S  dzz               60      1.308298  2 S  dyy        
    39     -1.186080  2 S  py                84      1.093192  3 H  py         
 
 Vector   32  Occ=0.000000D+00  E= 4.635682D-01
              MO Center=  6.0D-01, -2.1D-01,  4.8D-14, r^2= 5.1D+00
   Bfn.  Coefficient  Atom+Function         Bfn.  Coefficient  Atom+Function  
  ----- ------------  ---------------      ----- ------------  ---------------
    25      3.022848  2 S  s                 76      2.762384  3 H  s          
    41     -2.370982  2 S  s                  3     -1.964154  1 H  s          
    58      1.889125  2 S  dxy               84     -1.798490  3 H  py         
    75     -1.601906  3 H  s                 12     -1.348200  1 H  py         
    36     -1.250670  2 S  py               103     -1.189290  4 H  py         
 
 Vector   33  Occ=0.000000D+00  E= 4.783666D-01
              MO Center=  8.9D-01, -1.1D-01,  1.4D-14, r^2= 3.6D+00
   Bfn.  Coefficient  Atom+Function         Bfn.  Coefficient  Atom+Function  
  ----- ------------  ---------------      ----- ------------  ---------------
    59     -2.034075  2 S  dxz               13      1.908588  1 H  pz         
    40     -1.061445  2 S  pz                61      0.713971  2 S  dyz        
    37     -0.557666  2 S  pz                44      0.252113  2 S  pz         
    53     -0.193021  2 S  dxz              104      0.180093  4 H  pz         
    65      0.165812  2 S  fxxz              70      0.129405  2 S  fyyz       
 
 Vector   34  Occ=0.000000D+00  E= 5.099755D-01
              MO Center= -3.6D-02, -3.2D-01, -1.1D-14, r^2= 6.5D+00
   Bfn.  Coefficient  Atom+Function         Bfn.  Coefficient  Atom+Function  
  ----- ------------  ---------------      ----- ------------  ---------------
    76      7.976744  3 H  s                 41     -6.826197  2 S  s          
    75     -3.833369  3 H  s                 39     -2.601384  2 S  py         
    43      2.608807  2 S  py                95     -2.384345  4 H  s          
    57      2.342279  2 S  dxx               60      2.102177  2 S  dyy        
    84     -1.937726  3 H  py                62      1.380959  2 S  dzz        
 
 Vector   35  Occ=0.000000D+00  E= 5.309416D-01
              MO Center=  1.0D-01, -6.8D-01, -4.3D-14, r^2= 5.6D+00
   Bfn.  Coefficient  Atom+Function         Bfn.  Coefficient  Atom+Function  
  ----- ------------  ---------------      ----- ------------  ---------------
    94     -4.363854  4 H  s                 75      4.298517  3 H  s          
    76     -2.802329  3 H  s                 84     -1.989678  3 H  py         
   103     -1.968705  4 H  py                25      1.933870  2 S  s          
    95      1.838250  4 H  s                 39     -1.826007  2 S  py         
     3     -1.788487  1 H  s                 60      1.498309  2 S  dyy        
 
 Vector   36  Occ=0.000000D+00  E= 5.920943D-01
              MO Center= -4.3D-01, -9.7D-01, -4.0D-15, r^2= 4.3D+00
   Bfn.  Coefficient  Atom+Function         Bfn.  Coefficient  Atom+Function  
  ----- ------------  ---------------      ----- ------------  ---------------
    85      2.574846  3 H  pz                61      2.173537  2 S  dyz        
    40     -1.444069  2 S  pz               104     -1.190001  4 H  pz         
    37     -0.730586  2 S  pz                44      0.577182  2 S  pz         
    59      0.516364  2 S  dxz               13      0.307188  1 H  pz         
    70      0.215858  2 S  fyyz              65      0.161803  2 S  fxxz       
 
 Vector   37  Occ=0.000000D+00  E= 6.065820D-01
              MO Center= -3.5D-01, -8.7D-01, -1.9D-14, r^2= 4.7D+00
   Bfn.  Coefficient  Atom+Function         Bfn.  Coefficient  Atom+Function  
  ----- ------------  ---------------      ----- ------------  ---------------
    83      2.810878  3 H  px                76     -2.492484  3 H  s          
    41      2.178556  2 S  s                 58      2.047940  2 S  dxy        
     3     -1.552972  1 H  s                 38     -1.147985  2 S  px         
    60     -1.099042  2 S  dyy                2      1.088192  1 H  s          
    39      1.074722  2 S  py                43     -0.985087  2 S  py         
 
 Vector   38  Occ=0.000000D+00  E= 7.310732D-01
              MO Center= -3.5D-01, -6.9D-01, -1.3D-14, r^2= 7.5D+00
   Bfn.  Coefficient  Atom+Function         Bfn.  Coefficient  Atom+Function  
  ----- ------------  ---------------      ----- ------------  ---------------
    75     13.537463  3 H  s                 94     -6.865198  4 H  s          
    39      5.086944  2 S  py                25     -3.876305  2 S  s          
    60     -3.260594  2 S  dyy              103     -3.230771  4 H  py         
    74      2.773248  3 H  s                  3      1.920933  1 H  s          
    36      1.824770  2 S  py                57     -1.728290  2 S  dxx        
 
 Vector   39  Occ=0.000000D+00  E= 7.793971D-01
              MO Center=  5.5D-01, -4.0D-02, -1.4D-14, r^2= 6.2D+00
   Bfn.  Coefficient  Atom+Function         Bfn.  Coefficient  Atom+Function  
  ----- ------------  ---------------      ----- ------------  ---------------
     3     12.070357  1 H  s                 25     -8.921058  2 S  s          
    38     -7.086182  2 S  px                75     -6.326555  3 H  s          
    76      6.052672  3 H  s                 35     -5.516689  2 S  px         
    11     -4.673512  1 H  px                 2      3.411725  1 H  s          
    41     -3.063240  2 S  s                 58      3.071053  2 S  dxy        
 
 Vector   40  Occ=0.000000D+00  E= 8.765356D-01
              MO Center= -8.2D-02, -2.4D-01,  3.2D-15, r^2= 4.9D+00
   Bfn.  Coefficient  Atom+Function         Bfn.  Coefficient  Atom+Function  
  ----- ------------  ---------------      ----- ------------  ---------------
    25     10.541658  2 S  s                 84     -8.227996  3 H  py         
    75     -6.950963  3 H  s                 36     -6.496871  2 S  py         
    93     -3.720139  4 H  s                 58      3.594556  2 S  dxy        
    35     -3.563652  2 S  px                39     -3.541494  2 S  py         
    38     -2.977604  2 S  px                83     -2.264332  3 H  px         
 
 Vector   41  Occ=0.000000D+00  E= 9.325846D-01
              MO Center= -2.9D-02,  2.2D-01, -2.9D-13, r^2= 1.7D+00
   Bfn.  Coefficient  Atom+Function         Bfn.  Coefficient  Atom+Function  
  ----- ------------  ---------------      ----- ------------  ---------------
    53      1.553303  2 S  dxz               59     -1.408686  2 S  dxz        
    55      0.482909  2 S  dyz               61     -0.340179  2 S  dyz        
    47      0.261336  2 S  dxz               10      0.177674  1 H  pz         
    13      0.144108  1 H  pz                40     -0.113919  2 S  pz         
    82     -0.113185  3 H  pz                67     -0.087050  2 S  fxyz       
 
 Vector   42  Occ=0.000000D+00  E= 9.418418D-01
              MO Center=  6.1D-02,  2.3D-01,  3.2D-12, r^2= 2.4D+00
   Bfn.  Coefficient  Atom+Function         Bfn.  Coefficient  Atom+Function  
  ----- ------------  ---------------      ----- ------------  ---------------
    94      1.449236  4 H  s                 35      1.375776  2 S  px         
    41      1.041799  2 S  s                 25     -1.023972  2 S  s          
    60     -0.992292  2 S  dyy               75     -0.953735  3 H  s          
    58      0.939584  2 S  dxy               84      0.885413  3 H  py         
    76     -0.803123  3 H  s                 52     -0.788347  2 S  dxy        
 
 Vector   43  Occ=0.000000D+00  E= 9.459463D-01
              MO Center= -9.5D-03,  2.2D-01, -2.4D-12, r^2= 1.7D+00
   Bfn.  Coefficient  Atom+Function         Bfn.  Coefficient  Atom+Function  
  ----- ------------  ---------------      ----- ------------  ---------------
    55      1.579101  2 S  dyz               61     -1.449057  2 S  dyz        
    59      0.531650  2 S  dxz               53     -0.457117  2 S  dxz        
    37      0.390711  2 S  pz                49      0.263729  2 S  dyz        
    13     -0.196055  1 H  pz                70     -0.195521  2 S  fyyz       
    65     -0.162999  2 S  fxxz              82     -0.137693  3 H  pz         
 
 Vector   44  Occ=0.000000D+00  E= 9.706791D-01
              MO Center=  1.1D-01, -4.0D-03, -4.7D-13, r^2= 2.9D+00
   Bfn.  Coefficient  Atom+Function         Bfn.  Coefficient  Atom+Function  
  ----- ------------  ---------------      ----- ------------  ---------------
    25      3.642427  2 S  s                 35      2.447361  2 S  px         
    41      2.246719  2 S  s                 84     -2.221927  3 H  py         
    36     -2.136636  2 S  py                94     -1.954792  4 H  s          
    62     -1.490556  2 S  dzz               76     -1.298336  3 H  s          
    58     -1.214277  2 S  dxy               66     -1.148287  2 S  fxyy       
 
 Vector   45  Occ=0.000000D+00  E= 1.072182D+00
              MO Center= -3.4D-01, -6.2D-01, -6.6D-15, r^2= 3.9D+00
   Bfn.  Coefficient  Atom+Function         Bfn.  Coefficient  Atom+Function  
  ----- ------------  ---------------      ----- ------------  ---------------
    84      5.221125  3 H  py                94      4.598161  4 H  s          
    75     -4.017857  3 H  s                 25     -3.130062  2 S  s          
    41      2.784951  2 S  s                 93      2.397708  4 H  s          
   103      2.131848  4 H  py                76     -1.638611  3 H  s          
    83      1.446787  3 H  px                43     -1.198597  2 S  py         
 
 Vector   46  Occ=0.000000D+00  E= 1.097910D+00
              MO Center=  1.7D-02,  2.0D-01, -1.0D-13, r^2= 3.6D+00
   Bfn.  Coefficient  Atom+Function         Bfn.  Coefficient  Atom+Function  
  ----- ------------  ---------------      ----- ------------  ---------------
    37      6.150162  2 S  pz                70     -2.443928  2 S  fyyz       
    65     -2.397937  2 S  fxxz              72     -2.326720  2 S  fzzz       
    34     -2.048546  2 S  pz                40     -1.997073  2 S  pz         
    44      0.963094  2 S  pz                85     -0.322034  3 H  pz         
    61     -0.253510  2 S  dyz               31      0.190477  2 S  pz         
 
 Vector   47  Occ=0.000000D+00  E= 1.207537D+00
              MO Center= -7.5D-02,  1.4D-01,  1.6D-14, r^2= 3.3D+00
   Bfn.  Coefficient  Atom+Function         Bfn.  Coefficient  Atom+Function  
  ----- ------------  ---------------      ----- ------------  ---------------
    36     -5.824309  2 S  py                35      5.669306  2 S  px         
    75     -3.384990  3 H  s                 25      3.035089  2 S  s          
    76      2.888710  3 H  s                  3     -2.357809  1 H  s          
    64      2.278721  2 S  fxxy              63     -2.200465  2 S  fxxx       
    69      1.914140  2 S  fyyy              66     -1.716525  2 S  fxyy       
 
 Vector   48  Occ=0.000000D+00  E= 1.306648D+00
              MO Center= -1.5D-01, -2.0D-01,  7.7D-15, r^2= 4.1D+00
   Bfn.  Coefficient  Atom+Function         Bfn.  Coefficient  Atom+Function  
  ----- ------------  ---------------      ----- ------------  ---------------
    36      8.158547  2 S  py                84      6.564004  3 H  py         
    35      6.156584  2 S  px                75      5.737499  3 H  s          
    76     -4.643646  3 H  s                 25     -4.472247  2 S  s          
    41      2.553267  2 S  s                 69     -2.446023  2 S  fyyy       
     3     -2.421656  1 H  s                 66     -2.229985  2 S  fxyy       
 
 Vector   49  Occ=0.000000D+00  E= 1.387605D+00
              MO Center=  3.7D-02, -2.6D-01,  3.4D-14, r^2= 4.0D+00
   Bfn.  Coefficient  Atom+Function         Bfn.  Coefficient  Atom+Function  
  ----- ------------  ---------------      ----- ------------  ---------------
    25     13.630038  2 S  s                 41      5.060090  2 S  s          
    24     -4.701970  2 S  s                 60     -4.390312  2 S  dyy        
    57     -4.247117  2 S  dxx               62     -4.205976  2 S  dzz        
    76     -3.841877  3 H  s                 36     -2.484551  2 S  py         
    95      1.534246  4 H  s                 43     -1.515592  2 S  py         
 
 Vector   50  Occ=0.000000D+00  E= 1.550502D+00
              MO Center=  9.5D-02,  1.4D-01,  8.5D-15, r^2= 1.3D+00
   Bfn.  Coefficient  Atom+Function         Bfn.  Coefficient  Atom+Function  
  ----- ------------  ---------------      ----- ------------  ---------------
    67      2.074667  2 S  fxyz              65      1.590927  2 S  fxxz       
    70     -1.258186  2 S  fyyz              13     -0.405780  1 H  pz         
    59      0.403493  2 S  dxz               10      0.273533  1 H  pz         
    85      0.174707  3 H  pz                53     -0.173669  2 S  dxz        
    88     -0.151920  3 H  dxz               18      0.143782  1 H  dyz        
 
 Vector   51  Occ=0.000000D+00  E= 1.559123D+00
              MO Center=  2.8D-01, -2.5D-01, -5.6D-13, r^2= 2.4D+00
   Bfn.  Coefficient  Atom+Function         Bfn.  Coefficient  Atom+Function  
  ----- ------------  ---------------      ----- ------------  ---------------
    75      2.304700  3 H  s                 36      1.643143  2 S  py         
    64     -1.532680  2 S  fxxy              58     -1.099627  2 S  dxy        
    25     -1.049799  2 S  s                 76     -1.046785  3 H  s          
    94     -0.921451  4 H  s                 12      0.874941  1 H  py         
    74      0.783708  3 H  s                 66      0.699998  2 S  fxyy       
 
 Vector   52  Occ=0.000000D+00  E= 1.561549D+00
              MO Center=  3.8D-01, -1.2D-01,  6.0D-13, r^2= 2.0D+00
   Bfn.  Coefficient  Atom+Function         Bfn.  Coefficient  Atom+Function  
  ----- ------------  ---------------      ----- ------------  ---------------
    67      2.334785  2 S  fxyz              59     -0.933256  2 S  dxz        
    13      0.916950  1 H  pz                65     -0.887516  2 S  fxxz       
    10     -0.628311  1 H  pz                85     -0.560283  3 H  pz         
    53      0.422359  2 S  dxz               82      0.307958  3 H  pz         
    72      0.280713  2 S  fzzz              40     -0.267023  2 S  pz         
 
 Vector   53  Occ=0.000000D+00  E= 1.607100D+00
              MO Center= -5.4D-01, -1.7D+00,  1.1D-13, r^2= 2.0D+00
   Bfn.  Coefficient  Atom+Function         Bfn.  Coefficient  Atom+Function  
  ----- ------------  ---------------      ----- ------------  ---------------
   101      1.006762  4 H  pz                61     -0.786674  2 S  dyz        
    85     -0.784608  3 H  pz                82      0.580924  3 H  pz         
    40      0.537689  2 S  pz                13     -0.428148  1 H  pz         
    65      0.422530  2 S  fxxz             104     -0.417828  4 H  pz         
    67     -0.388478  2 S  fxyz              55      0.262680  2 S  dyz        
 
 Vector   54  Occ=0.000000D+00  E= 1.623642D+00
              MO Center= -4.5D-01, -1.3D+00, -1.4D-13, r^2= 2.4D+00
   Bfn.  Coefficient  Atom+Function         Bfn.  Coefficient  Atom+Function  
  ----- ------------  ---------------      ----- ------------  ---------------
    83      1.352620  3 H  px                76      1.184284  3 H  s          
    35      1.042791  2 S  px                41     -1.028610  2 S  s          
    64     -0.839754  2 S  fxxy              99     -0.839000  4 H  px         
    93      0.758701  4 H  s                 25     -0.693841  2 S  s          
     3     -0.679523  1 H  s                 11      0.672013  1 H  px         
 
 Vector   55  Occ=0.000000D+00  E= 1.645579D+00
              MO Center= -2.0D-01, -5.9D-01,  1.8D-14, r^2= 2.7D+00
   Bfn.  Coefficient  Atom+Function         Bfn.  Coefficient  Atom+Function  
  ----- ------------  ---------------      ----- ------------  ---------------
    75      2.109476  3 H  s                 25     -1.564911  2 S  s          
    36      1.226151  2 S  py                66      1.224905  2 S  fxyy       
    68     -1.154350  2 S  fxzz              58     -1.067882  2 S  dxy        
     2      0.944325  1 H  s                 84      0.831138  3 H  py         
    69     -0.809116  2 S  fyyy              83     -0.755982  3 H  px         
 
 Vector   56  Occ=0.000000D+00  E= 1.672934D+00
              MO Center= -2.1D-01, -4.4D-01,  3.4D-14, r^2= 2.3D+00
   Bfn.  Coefficient  Atom+Function         Bfn.  Coefficient  Atom+Function  
  ----- ------------  ---------------      ----- ------------  ---------------
    70      1.550050  2 S  fyyz              85     -1.420763  3 H  pz         
    67      1.218696  2 S  fxyz              61     -1.100496  2 S  dyz        
    72     -0.825475  2 S  fzzz              40      0.722125  2 S  pz         
   104      0.713282  4 H  pz                37      0.521368  2 S  pz         
    82      0.481500  3 H  pz               101     -0.450636  4 H  pz         
 
 Vector   57  Occ=0.000000D+00  E= 1.714176D+00
              MO Center= -3.4D-01, -8.4D-01, -5.3D-14, r^2= 3.5D+00
   Bfn.  Coefficient  Atom+Function         Bfn.  Coefficient  Atom+Function  
  ----- ------------  ---------------      ----- ------------  ---------------
    75      8.947295  3 H  s                 94     -3.602519  4 H  s          
    60     -3.361866  2 S  dyy               39      2.875203  2 S  py         
    25      2.678617  2 S  s                 36      2.133004  2 S  py         
    76     -1.995939  3 H  s                103     -1.986142  4 H  py         
    71     -1.918999  2 S  fyzz              24     -1.670595  2 S  s          
 
 Vector   58  Occ=0.000000D+00  E= 1.880531D+00
              MO Center=  1.7D-01, -1.7D-01, -1.2D-16, r^2= 2.7D+00
   Bfn.  Coefficient  Atom+Function         Bfn.  Coefficient  Atom+Function  
  ----- ------------  ---------------      ----- ------------  ---------------
    35      5.779314  2 S  px                 3     -5.026624  1 H  s          
     2     -3.273429  1 H  s                 68     -3.281033  2 S  fxzz       
    25      2.949486  2 S  s                 38      2.642707  2 S  px         
    75      2.462993  3 H  s                 11      2.413641  1 H  px         
    58     -2.146168  2 S  dxy               76     -1.986984  3 H  s          
 
 Vector   59  Occ=0.000000D+00  E= 1.927909D+00
              MO Center=  2.7D-01, -4.0D-01, -3.3D-16, r^2= 2.8D+00
   Bfn.  Coefficient  Atom+Function         Bfn.  Coefficient  Atom+Function  
  ----- ------------  ---------------      ----- ------------  ---------------
     3      3.827279  1 H  s                 25     -3.838301  2 S  s          
    35     -3.633682  2 S  px                74     -3.011209  3 H  s          
     2      2.530055  1 H  s                 38     -2.422283  2 S  px         
    75     -2.261949  3 H  s                 11     -1.713900  1 H  px         
    58      1.571014  2 S  dxy               71     -1.346632  2 S  fyzz       
 
 Vector   60  Occ=0.000000D+00  E= 1.957781D+00
              MO Center=  1.0D-01, -6.1D-01,  1.4D-15, r^2= 3.3D+00
   Bfn.  Coefficient  Atom+Function         Bfn.  Coefficient  Atom+Function  
  ----- ------------  ---------------      ----- ------------  ---------------
     2      5.082052  1 H  s                 25     -4.589949  2 S  s          
    74      3.543552  3 H  s                 36      3.110128  2 S  py         
     3      2.968408  1 H  s                 35     -2.873906  2 S  px         
    38     -2.127266  2 S  px                11     -1.976269  1 H  px         
    39      1.647143  2 S  py                57     -1.551528  2 S  dxx        
 
 Vector   61  Occ=0.000000D+00  E= 2.039741D+00
              MO Center=  1.8D-01, -5.0D-01,  1.5D-15, r^2= 2.3D+00
   Bfn.  Coefficient  Atom+Function         Bfn.  Coefficient  Atom+Function  
  ----- ------------  ---------------      ----- ------------  ---------------
    65      1.022420  2 S  fxxz              72     -0.928466  2 S  fzzz       
    10     -0.854213  1 H  pz                82     -0.742198  3 H  pz         
    37      0.641183  2 S  pz                85      0.554135  3 H  pz         
    70      0.518987  2 S  fyyz              40     -0.481944  2 S  pz         
   101      0.425374  4 H  pz               104     -0.369610  4 H  pz         
 
 Vector   62  Occ=0.000000D+00  E= 2.097771D+00
              MO Center=  7.9D-02, -5.2D-01, -5.2D-14, r^2= 2.3D+00
   Bfn.  Coefficient  Atom+Function         Bfn.  Coefficient  Atom+Function  
  ----- ------------  ---------------      ----- ------------  ---------------
    67      1.927689  2 S  fxyz              65     -1.222058  2 S  fxxz       
    70      1.106380  2 S  fyyz              10      0.777200  1 H  pz         
    82     -0.780628  3 H  pz                85      0.535292  3 H  pz         
   101      0.423412  4 H  pz               104     -0.366966  4 H  pz         
    13     -0.286357  1 H  pz               109     -0.210422  4 H  dyz        
 
 Vector   63  Occ=0.000000D+00  E= 2.133191D+00
              MO Center= -1.1D-01, -4.3D-01,  9.0D-14, r^2= 3.4D+00
   Bfn.  Coefficient  Atom+Function         Bfn.  Coefficient  Atom+Function  
  ----- ------------  ---------------      ----- ------------  ---------------
    25      8.787454  2 S  s                 36     -6.664402  2 S  py         
    84     -5.216480  3 H  py                74     -4.048297  3 H  s          
    93     -3.111064  4 H  s                 71      2.738785  2 S  fyzz       
    35     -2.680723  2 S  px                58      2.111543  2 S  dxy        
    64      1.963583  2 S  fxxy              39     -1.824687  2 S  py         
 
 Vector   64  Occ=0.000000D+00  E= 2.172119D+00
              MO Center=  1.6D-01, -5.5D-01, -2.4D-14, r^2= 2.8D+00
   Bfn.  Coefficient  Atom+Function         Bfn.  Coefficient  Atom+Function  
  ----- ------------  ---------------      ----- ------------  ---------------
    74      4.627154  3 H  s                  2     -2.717438  1 H  s          
    76      2.232345  3 H  s                 93     -1.609694  4 H  s          
    36      1.499602  2 S  py                73     -1.392881  3 H  s          
    41     -1.142300  2 S  s                  1      1.063036  1 H  s          
    64      0.936147  2 S  fxxy              25     -0.918552  2 S  s          
 
 Vector   65  Occ=0.000000D+00  E= 2.233665D+00
              MO Center=  1.9D-01, -5.1D-01,  1.8D-15, r^2= 2.7D+00
   Bfn.  Coefficient  Atom+Function         Bfn.  Coefficient  Atom+Function  
  ----- ------------  ---------------      ----- ------------  ---------------
    25     -3.599737  2 S  s                  2      3.330881  1 H  s          
    36      2.779521  2 S  py                74      2.259409  3 H  s          
    84      1.588840  3 H  py                64     -1.291972  2 S  fxxy       
    66     -1.172591  2 S  fxyy               1     -1.097033  1 H  s          
    93      1.079460  4 H  s                 11     -0.938782  1 H  px         
 
 Vector   66  Occ=0.000000D+00  E= 2.573614D+00
              MO Center=  2.2D-01, -5.9D-01,  5.6D-16, r^2= 3.0D+00
   Bfn.  Coefficient  Atom+Function         Bfn.  Coefficient  Atom+Function  
  ----- ------------  ---------------      ----- ------------  ---------------
    25     10.134902  2 S  s                 84     -6.038650  3 H  py         
    93     -5.402131  4 H  s                 36     -3.858039  2 S  py         
    94     -2.830124  4 H  s                  2     -2.761202  1 H  s          
   103     -2.199448  4 H  py                62     -2.118306  2 S  dzz        
    35      2.057039  2 S  px                68     -1.993134  2 S  fxzz       
 
 Vector   67  Occ=0.000000D+00  E= 2.586661D+00
              MO Center= -1.4D-01, -1.1D+00,  8.2D-16, r^2= 3.6D+00
   Bfn.  Coefficient  Atom+Function         Bfn.  Coefficient  Atom+Function  
  ----- ------------  ---------------      ----- ------------  ---------------
    84      7.473339  3 H  py                93      7.481858  4 H  s          
    25     -3.703697  2 S  s                 35      3.282572  2 S  px         
     2     -2.731513  1 H  s                103      2.290236  4 H  py         
    94      2.169865  4 H  s                 83      1.783911  3 H  px         
    36      1.719746  2 S  py                74     -1.723351  3 H  s          
 
 Vector   68  Occ=0.000000D+00  E= 2.821669D+00
              MO Center= -5.8D-01, -1.7D+00,  1.0D-13, r^2= 1.1D+00
   Bfn.  Coefficient  Atom+Function         Bfn.  Coefficient  Atom+Function  
  ----- ------------  ---------------      ----- ------------  ---------------
   107      1.240469  4 H  dxz               88      0.991811  3 H  dxz        
    67      0.370438  2 S  fxyz              90     -0.326549  3 H  dyz        
    18      0.266721  1 H  dyz               70     -0.239993  2 S  fyyz       
   109     -0.181365  4 H  dyz               16      0.178595  1 H  dxz        
    59     -0.163639  2 S  dxz               37      0.139725  2 S  pz         
 
 Vector   69  Occ=0.000000D+00  E= 2.853432D+00
              MO Center= -4.4D-01, -1.2D+00, -1.2D-13, r^2= 2.4D+00
   Bfn.  Coefficient  Atom+Function         Bfn.  Coefficient  Atom+Function  
  ----- ------------  ---------------      ----- ------------  ---------------
    25      8.287711  2 S  s                 36     -5.623402  2 S  py         
    75     -5.136580  3 H  s                 74     -2.932562  3 H  s          
    84     -2.734609  3 H  py                71      2.323411  2 S  fyzz       
    41      2.074971  2 S  s                 93     -1.896840  4 H  s          
    39     -1.605568  2 S  py                94      1.578204  4 H  s          
 
 Vector   70  Occ=0.000000D+00  E= 2.859304D+00
              MO Center= -5.9D-01, -1.7D+00,  3.4D-16, r^2= 1.2D+00
   Bfn.  Coefficient  Atom+Function         Bfn.  Coefficient  Atom+Function  
  ----- ------------  ---------------      ----- ------------  ---------------
    25      1.140400  2 S  s                 36     -0.840388  2 S  py         
    71      0.842979  2 S  fyzz              35      0.792591  2 S  px         
   105     -0.691240  4 H  dxx                2     -0.653146  1 H  s          
   110      0.618534  4 H  dzz               75     -0.575461  3 H  s          
    68     -0.533346  2 S  fxzz              91      0.507327  3 H  dzz        
 
 Vector   71  Occ=0.000000D+00  E= 2.992441D+00
              MO Center= -9.9D-03,  7.2D-02, -2.9D-14, r^2= 1.9D+00
   Bfn.  Coefficient  Atom+Function         Bfn.  Coefficient  Atom+Function  
  ----- ------------  ---------------      ----- ------------  ---------------
    37      5.971008  2 S  pz                72     -3.696914  2 S  fzzz       
    65     -3.435470  2 S  fxxz              70     -3.257055  2 S  fyyz       
    40     -1.040776  2 S  pz                44      0.479887  2 S  pz         
    31     -0.421305  2 S  pz                85     -0.388164  3 H  pz         
    61     -0.351654  2 S  dyz               67      0.325903  2 S  fxyz       
 
 Vector   72  Occ=0.000000D+00  E= 3.089934D+00
              MO Center=  2.1D-01, -9.1D-01, -4.7D-16, r^2= 2.5D+00
   Bfn.  Coefficient  Atom+Function         Bfn.  Coefficient  Atom+Function  
  ----- ------------  ---------------      ----- ------------  ---------------
    67      1.286285  2 S  fxyz              70      1.211933  2 S  fyyz       
    18     -1.080562  1 H  dyz               37     -1.077440  2 S  pz         
    65      0.977549  2 S  fxxz             109      0.861125  4 H  dyz        
    72      0.645058  2 S  fzzz              90     -0.608507  3 H  dyz        
   107      0.421583  4 H  dxz               16     -0.408324  1 H  dxz        
 
 Vector   73  Occ=0.000000D+00  E= 3.100726D+00
              MO Center= -1.1D-01, -1.1D+00,  1.0D-14, r^2= 2.5D+00
   Bfn.  Coefficient  Atom+Function         Bfn.  Coefficient  Atom+Function  
  ----- ------------  ---------------      ----- ------------  ---------------
    35      1.907256  2 S  px                25      1.833524  2 S  s          
    69     -1.233395  2 S  fyyy             106      1.037223  4 H  dxy        
    36      0.954741  2 S  py                71     -0.945128  2 S  fyzz       
    66     -0.916892  2 S  fxyy              63     -0.902597  2 S  fxxx       
    68     -0.831079  2 S  fxzz               2     -0.804938  1 H  s          
 
 Vector   74  Occ=0.000000D+00  E= 3.127241D+00
              MO Center=  8.4D-02, -1.1D+00, -1.2D-15, r^2= 2.5D+00
   Bfn.  Coefficient  Atom+Function         Bfn.  Coefficient  Atom+Function  
  ----- ------------  ---------------      ----- ------------  ---------------
    70      1.134951  2 S  fyyz              18      1.037100  1 H  dyz        
   109      0.965816  4 H  dyz               90     -0.639805  3 H  dyz        
    61     -0.530993  2 S  dyz              107     -0.509752  4 H  dxz        
    85     -0.405709  3 H  pz                16      0.396218  1 H  dxz        
    37     -0.270035  2 S  pz                82     -0.265068  3 H  pz         
 
 Vector   75  Occ=0.000000D+00  E= 3.158655D+00
              MO Center= -9.1D-02,  1.7D-01, -1.1D-14, r^2= 1.8D+00
   Bfn.  Coefficient  Atom+Function         Bfn.  Coefficient  Atom+Function  
  ----- ------------  ---------------      ----- ------------  ---------------
    35      7.995393  2 S  px                36     -5.111109  2 S  py         
    63     -4.455575  2 S  fxxx              68     -3.864499  2 S  fxzz       
    64      3.596168  2 S  fxxy              66     -3.590508  2 S  fxyy       
    71      2.784001  2 S  fyzz              69      2.597237  2 S  fyyy       
     3     -2.370185  1 H  s                  2     -2.018106  1 H  s          
 
 Vector   76  Occ=0.000000D+00  E= 3.178688D+00
              MO Center=  3.8D-01, -5.7D-01, -5.3D-16, r^2= 2.4D+00
   Bfn.  Coefficient  Atom+Function         Bfn.  Coefficient  Atom+Function  
  ----- ------------  ---------------      ----- ------------  ---------------
    36      4.597155  2 S  py                25     -3.009528  2 S  s          
    64     -2.521008  2 S  fxxy              35      2.257673  2 S  px         
    71     -2.264183  2 S  fyzz              75      1.947644  3 H  s          
    84      1.764352  3 H  py                66     -1.716740  2 S  fxyy       
    69     -1.455514  2 S  fyyy              74      1.432616  3 H  s          
 
 Vector   77  Occ=0.000000D+00  E= 3.274231D+00
              MO Center= -6.5D-02, -5.2D-01,  3.3D-16, r^2= 2.6D+00
   Bfn.  Coefficient  Atom+Function         Bfn.  Coefficient  Atom+Function  
  ----- ------------  ---------------      ----- ------------  ---------------
    36      8.385942  2 S  py                35      5.031158  2 S  px         
    84      4.997419  3 H  py                25     -4.545885  2 S  s          
    69     -3.838585  2 S  fyyy              64     -3.066471  2 S  fxxy       
    71     -3.067857  2 S  fyzz              75      3.073003  3 H  s          
    93      2.979504  4 H  s                 66     -2.313620  2 S  fxyy       
 
 Vector   78  Occ=0.000000D+00  E= 3.343264D+00
              MO Center= -3.0D-01, -1.2D+00,  8.8D-15, r^2= 1.6D+00
   Bfn.  Coefficient  Atom+Function         Bfn.  Coefficient  Atom+Function  
  ----- ------------  ---------------      ----- ------------  ---------------
    88      1.360296  3 H  dxz              107     -0.992924  4 H  dxz        
    18     -0.715385  1 H  dyz               70     -0.675584  2 S  fyyz       
    65      0.550324  2 S  fxxz              67      0.521398  2 S  fxyz       
    61      0.371937  2 S  dyz               85      0.257351  3 H  pz         
    37     -0.220222  2 S  pz                90     -0.161006  3 H  dyz        
 
 Vector   79  Occ=0.000000D+00  E= 3.362292D+00
              MO Center= -1.8D-01, -9.2D-01, -5.8D-15, r^2= 2.1D+00
   Bfn.  Coefficient  Atom+Function         Bfn.  Coefficient  Atom+Function  
  ----- ------------  ---------------      ----- ------------  ---------------
    36      5.127926  2 S  py                25     -3.715254  2 S  s          
    35      3.658327  2 S  px                84      3.440272  3 H  py         
    75      2.165890  3 H  s                 71     -2.130791  2 S  fyzz       
    69     -2.080350  2 S  fyyy              66     -1.977351  2 S  fxyy       
    93      1.976739  4 H  s                 68     -1.701887  2 S  fxzz       
 
 Vector   80  Occ=0.000000D+00  E= 3.635004D+00
              MO Center=  8.6D-01, -9.3D-02,  1.6D-16, r^2= 1.2D+00
   Bfn.  Coefficient  Atom+Function         Bfn.  Coefficient  Atom+Function  
  ----- ------------  ---------------      ----- ------------  ---------------
    16      1.852814  1 H  dxz               65      1.712458  2 S  fxxz       
    67     -1.238139  2 S  fxyz              59      0.690934  2 S  dxz        
    18     -0.609036  1 H  dyz               47      0.602895  2 S  dxz        
    13     -0.507476  1 H  pz                37     -0.374124  2 S  pz         
    70      0.372309  2 S  fyyz              40      0.305764  2 S  pz         
 
 Vector   81  Occ=0.000000D+00  E= 3.643347D+00
              MO Center=  7.7D-01, -1.1D-01, -4.2D-15, r^2= 1.4D+00
   Bfn.  Coefficient  Atom+Function         Bfn.  Coefficient  Atom+Function  
  ----- ------------  ---------------      ----- ------------  ---------------
    15      1.485373  1 H  dxy               64      1.243427  2 S  fxxy       
    66     -0.985854  2 S  fxyy              58      0.871860  2 S  dxy        
    63      0.748553  2 S  fxxx              75     -0.686227  3 H  s          
    17     -0.629185  1 H  dyy               35     -0.593600  2 S  px         
    14      0.572069  1 H  dxx               46      0.536101  2 S  dxy        
 
 Vector   82  Occ=0.000000D+00  E= 3.877624D+00
              MO Center= -1.3D-03, -3.2D-01,  3.5D-14, r^2= 2.3D+00
   Bfn.  Coefficient  Atom+Function         Bfn.  Coefficient  Atom+Function  
  ----- ------------  ---------------      ----- ------------  ---------------
    25      7.578125  2 S  s                 24      6.579931  2 S  s          
    56     -4.057878  2 S  dzz               51     -3.951596  2 S  dxx        
    54     -3.951070  2 S  dyy               75      3.611070  3 H  s          
    60     -2.776344  2 S  dyy               76     -2.497022  3 H  s          
    62     -2.396034  2 S  dzz               41      2.319388  2 S  s          
 
 Vector   83  Occ=0.000000D+00  E= 4.092290D+00
              MO Center= -1.7D-01, -1.0D+00, -3.1D-16, r^2= 2.2D+00
   Bfn.  Coefficient  Atom+Function         Bfn.  Coefficient  Atom+Function  
  ----- ------------  ---------------      ----- ------------  ---------------
    24      2.611982  2 S  s                 25      1.893080  2 S  s          
    93      1.847404  4 H  s                  2     -1.728016  1 H  s          
    54     -1.518927  2 S  dyy               56     -1.351424  2 S  dzz        
    84      1.048248  3 H  py                51     -0.966575  2 S  dxx        
    35      0.932496  2 S  px               103      0.839221  4 H  py         
 
 Vector   84  Occ=0.000000D+00  E= 4.171747D+00
              MO Center= -4.0D-01, -9.9D-01,  3.3D-15, r^2= 1.7D+00
   Bfn.  Coefficient  Atom+Function         Bfn.  Coefficient  Atom+Function  
  ----- ------------  ---------------      ----- ------------  ---------------
    90      1.477705  3 H  dyz              109      1.249090  4 H  dyz        
    49      0.951684  2 S  dyz               70     -0.908671  2 S  fyyz       
    37      0.572843  2 S  pz                67     -0.554806  2 S  fxyz       
    65     -0.403305  2 S  fxxz              55     -0.376719  2 S  dyz        
    47      0.373448  2 S  dxz               88      0.370624  3 H  dxz        
 
 Vector   85  Occ=0.000000D+00  E= 4.203426D+00
              MO Center=  2.4D-01, -5.7D-01, -8.4D-16, r^2= 2.2D+00
   Bfn.  Coefficient  Atom+Function         Bfn.  Coefficient  Atom+Function  
  ----- ------------  ---------------      ----- ------------  ---------------
     2      3.082826  1 H  s                 35     -2.802942  2 S  px         
     3      2.406682  1 H  s                 24      1.490579  2 S  s          
    11     -1.421283  1 H  px                51     -1.399133  2 S  dxx        
    57     -1.332829  2 S  dxx               38     -1.264046  2 S  px         
    25     -1.201554  2 S  s                 36      1.080468  2 S  py         
 
 Vector   86  Occ=0.000000D+00  E= 4.284774D+00
              MO Center=  6.5D-02, -7.5D-01,  1.8D-14, r^2= 2.4D+00
   Bfn.  Coefficient  Atom+Function         Bfn.  Coefficient  Atom+Function  
  ----- ------------  ---------------      ----- ------------  ---------------
    24      3.676301  2 S  s                  2      3.309241  1 H  s          
    51     -2.808063  2 S  dxx               54     -2.370497  2 S  dyy        
    56     -2.337407  2 S  dzz                3      1.889296  1 H  s          
    93      1.829238  4 H  s                 57     -1.707931  2 S  dxx        
    35     -1.613229  2 S  px                25      1.414318  2 S  s          
 
 Vector   87  Occ=0.000000D+00  E= 4.515024D+00
              MO Center= -4.8D-01, -1.2D+00,  6.6D-16, r^2= 1.3D+00
   Bfn.  Coefficient  Atom+Function         Bfn.  Coefficient  Atom+Function  
  ----- ------------  ---------------      ----- ------------  ---------------
    74      6.811400  3 H  s                 36      2.709783  2 S  py         
    93     -2.064079  4 H  s                 91     -1.925762  3 H  dzz        
    86     -1.743680  3 H  dxx               35      1.570617  2 S  px         
    89     -1.113693  3 H  dyy               60     -1.024253  2 S  dyy        
    76      1.005965  3 H  s                 75      1.000234  3 H  s          
 
 Vector   88  Occ=0.000000D+00  E= 4.597904D+00
              MO Center=  9.7D-01, -1.6D-01,  9.8D-16, r^2= 1.2D+00
   Bfn.  Coefficient  Atom+Function         Bfn.  Coefficient  Atom+Function  
  ----- ------------  ---------------      ----- ------------  ---------------
     2      5.247148  1 H  s                 35     -3.606797  2 S  px         
    25     -1.936403  2 S  s                 14     -1.783330  1 H  dxx        
    17     -1.520665  1 H  dyy               63      1.506931  2 S  fxxx       
    19     -1.455579  1 H  dzz               66      1.198121  2 S  fxyy       
    68      1.152757  2 S  fxzz              93     -1.065123  4 H  s          
 
 Vector   89  Occ=0.000000D+00  E= 4.781774D+00
              MO Center= -6.7D-01, -1.8D+00,  1.4D-14, r^2= 1.9D+00
   Bfn.  Coefficient  Atom+Function         Bfn.  Coefficient  Atom+Function  
  ----- ------------  ---------------      ----- ------------  ---------------
    25      9.771246  2 S  s                 93     -8.984025  4 H  s          
    84     -7.558976  3 H  py                36     -6.765158  2 S  py         
    35     -2.943630  2 S  px               103     -2.461078  4 H  py         
    94     -2.198671  4 H  s                 69      2.165469  2 S  fyyy       
    83     -2.143141  3 H  px               105      1.920197  4 H  dxx        
 
 Vector   90  Occ=0.000000D+00  E= 4.827371D+00
              MO Center=  1.8D-01,  1.4D-01, -2.2D-15, r^2= 6.4D-01
   Bfn.  Coefficient  Atom+Function         Bfn.  Coefficient  Atom+Function  
  ----- ------------  ---------------      ----- ------------  ---------------
    47      1.643690  2 S  dxz               53     -1.462857  2 S  dxz        
    16     -0.880736  1 H  dxz               49     -0.877353  2 S  dyz        
    65     -0.829185  2 S  fxxz              55      0.769456  2 S  dyz        
    67      0.551880  2 S  fxyz              10      0.284685  1 H  pz         
    18      0.284068  1 H  dyz               59      0.260487  2 S  dxz        
 
 Vector   91  Occ=0.000000D+00  E= 4.904348D+00
              MO Center= -1.7D-01, -2.8D-01, -1.5D-14, r^2= 1.1D+00
   Bfn.  Coefficient  Atom+Function         Bfn.  Coefficient  Atom+Function  
  ----- ------------  ---------------      ----- ------------  ---------------
    49      1.442814  2 S  dyz               55     -1.295250  2 S  dyz        
    90     -1.287707  3 H  dyz               70      0.868876  2 S  fyyz       
    47      0.817854  2 S  dxz               53     -0.743651  2 S  dxz        
    67      0.674569  2 S  fxyz             109     -0.653862  4 H  dyz        
    88     -0.396596  3 H  dxz               61      0.294518  2 S  dyz        
 
 Vector   92  Occ=0.000000D+00  E= 5.210930D+00
              MO Center= -2.1D-02, -2.5D-01,  1.3D-16, r^2= 1.2D+00
   Bfn.  Coefficient  Atom+Function         Bfn.  Coefficient  Atom+Function  
  ----- ------------  ---------------      ----- ------------  ---------------
    25      1.791457  2 S  s                 52      1.401355  2 S  dxy        
    46     -1.340257  2 S  dxy               66     -1.196407  2 S  fxyy       
    36     -1.012566  2 S  py                87      1.001975  3 H  dxy        
    84     -0.787594  3 H  py                15      0.770105  1 H  dxy        
    74     -0.644595  3 H  s                 51      0.627054  2 S  dxx        
 
 Vector   93  Occ=0.000000D+00  E= 5.325052D+00
              MO Center=  2.8D-02, -1.6D-01,  7.0D-15, r^2= 1.2D+00
   Bfn.  Coefficient  Atom+Function         Bfn.  Coefficient  Atom+Function  
  ----- ------------  ---------------      ----- ------------  ---------------
    25     -3.957838  2 S  s                 24      3.862856  2 S  s          
    51     -2.201982  2 S  dxx               54     -2.142751  2 S  dyy        
    84      1.987643  3 H  py                64      1.418641  2 S  fxxy       
    63     -1.350960  2 S  fxxx              93      1.220752  4 H  s          
    50     -1.187865  2 S  dzz               81      1.177753  3 H  py         
 
 Vector   94  Occ=0.000000D+00  E= 5.835150D+00
              MO Center= -2.1D-01, -7.3D-01, -6.3D-15, r^2= 1.7D+00
   Bfn.  Coefficient  Atom+Function         Bfn.  Coefficient  Atom+Function  
  ----- ------------  ---------------      ----- ------------  ---------------
    51      2.289536  2 S  dxx               24     -1.838814  2 S  s          
    25      1.745593  2 S  s                 63      1.498557  2 S  fxxx       
   108      1.461718  4 H  dyy               81      1.328456  3 H  py         
     8      1.273289  1 H  px                52     -1.215137  2 S  dxy        
    89     -1.184974  3 H  dyy              100      1.149481  4 H  py         
 
 Vector   95  Occ=0.000000D+00  E= 6.520573D+00
              MO Center= -2.5D-01, -6.0D-01,  1.5D-15, r^2= 1.5D+00
   Bfn.  Coefficient  Atom+Function         Bfn.  Coefficient  Atom+Function  
  ----- ------------  ---------------      ----- ------------  ---------------
    52      2.419093  2 S  dxy               89     -2.347354  3 H  dyy        
    66     -2.239947  2 S  fxyy              54      1.935650  2 S  dyy        
    74     -1.572869  3 H  s                 87     -1.492032  3 H  dxy        
   108      1.372888  4 H  dyy              100      1.337821  4 H  py         
    24     -1.180708  2 S  s                 63     -1.121006  2 S  fxxx       
 
 Vector   96  Occ=0.000000D+00  E= 8.532745D+00
              MO Center= -4.9D-01, -1.2D+00, -1.3D-15, r^2= 5.6D-01
   Bfn.  Coefficient  Atom+Function         Bfn.  Coefficient  Atom+Function  
  ----- ------------  ---------------      ----- ------------  ---------------
    79      1.167808  3 H  pz                82     -0.864389  3 H  pz         
    98      0.468846  4 H  pz                85      0.455129  3 H  pz         
   101     -0.263998  4 H  pz                67      0.242358  2 S  fxyz       
    70      0.243181  2 S  fyyz               7     -0.209429  1 H  pz         
    61      0.189999  2 S  dyz               55     -0.185377  2 S  dyz        
 
 Vector   97  Occ=0.000000D+00  E= 8.558955D+00
              MO Center= -1.5D-01, -1.0D+00,  2.4D-15, r^2= 1.1D+00
   Bfn.  Coefficient  Atom+Function         Bfn.  Coefficient  Atom+Function  
  ----- ------------  ---------------      ----- ------------  ---------------
    77      1.030229  3 H  px                80     -0.783126  3 H  px         
    75      0.645812  3 H  s                  6      0.535949  1 H  py         
    83      0.439745  3 H  px                 9     -0.371157  1 H  py         
    94     -0.364114  4 H  s                 96      0.361163  4 H  px         
    78     -0.318564  3 H  py                25      0.296288  2 S  s          
 
[...]
 
 Vector   93  Occ=0.000000D+00  E= 5.352641D+00
              MO Center=  3.6D-02, -1.5D-01, -6.0D-18, r^2= 1.2D+00
   Bfn.  Coefficient  Atom+Function         Bfn.  Coefficient  Atom+Function  
  ----- ------------  ---------------      ----- ------------  ---------------
    24      4.014697  2 S  s                 25     -3.985329  2 S  s          
    51     -2.346048  2 S  dxx               54     -2.199230  2 S  dyy        
    84      2.006886  3 H  py                64      1.491860  2 S  fxxy       
    63     -1.412644  2 S  fxxx              93      1.248784  4 H  s          
     8     -1.219681  1 H  px                50     -1.205260  2 S  dzz        
 
 Vector   94  Occ=0.000000D+00  E= 5.897455D+00
              MO Center= -2.0D-01, -6.9D-01,  1.8D-16, r^2= 1.7D+00
   Bfn.  Coefficient  Atom+Function         Bfn.  Coefficient  Atom+Function  
  ----- ------------  ---------------      ----- ------------  ---------------
    51      2.231676  2 S  dxx               24     -1.574154  2 S  s          
    63      1.500156  2 S  fxxx              52     -1.394446  2 S  dxy        
    81      1.398133  3 H  py               108      1.371170  4 H  dyy        
    25      1.362376  2 S  s                  8      1.290356  1 H  px         
    64     -1.144088  2 S  fxxy             100      1.085484  4 H  py         
 
 Vector   95  Occ=0.000000D+00  E= 6.591617D+00
              MO Center= -2.9D-01, -7.0D-01,  9.1D-17, r^2= 1.6D+00
   Bfn.  Coefficient  Atom+Function         Bfn.  Coefficient  Atom+Function  
  ----- ------------  ---------------      ----- ------------  ---------------
    89     -2.431986  3 H  dyy               52      2.321836  2 S  dxy        
    66     -2.208501  2 S  fxyy              54      1.949672  2 S  dyy        
    74     -1.614935  3 H  s                 87     -1.523150  3 H  dxy        
   100      1.441086  4 H  py               108      1.442748  4 H  dyy        
    24     -1.278530  2 S  s                 69     -1.116936  2 S  fyyy       
 
 Vector   96  Occ=0.000000D+00  E= 8.637739D+00
              MO Center=  8.9D-01, -4.8D-01,  6.9D-16, r^2= 1.2D+00
   Bfn.  Coefficient  Atom+Function         Bfn.  Coefficient  Atom+Function  
  ----- ------------  ---------------      ----- ------------  ---------------
     7      1.151440  1 H  pz                10     -0.870198  1 H  pz         
    79     -0.429141  3 H  pz                98     -0.359535  4 H  pz         
    67     -0.352119  2 S  fxyz              13      0.320371  1 H  pz         
    82      0.303919  3 H  pz                65      0.293685  2 S  fxxz       
    53      0.283441  2 S  dxz              101      0.224242  4 H  pz         
 
 Vector   97  Occ=0.000000D+00  E= 8.654209D+00
              MO Center=  8.9D-01, -4.1D-01, -8.1D-16, r^2= 9.9D-01
   Bfn.  Coefficient  Atom+Function         Bfn.  Coefficient  Atom+Function  
  ----- ------------  ---------------      ----- ------------  ---------------
     6      1.085588  1 H  py                 9     -0.827728  1 H  py         
    77      0.535453  3 H  px                75      0.510749  3 H  s          
    36      0.388761  2 S  py                80     -0.382621  3 H  px         
     5      0.375289  1 H  px                12      0.325476  1 H  py         
    83      0.318727  3 H  px                66     -0.294469  2 S  fxyy       
 
 Vector   98  Occ=0.000000D+00  E= 8.660525D+00
              MO Center= -2.8D-01, -1.5D+00,  6.4D-16, r^2= 1.5D+00
   Bfn.  Coefficient  Atom+Function         Bfn.  Coefficient  Atom+Function  
  ----- ------------  ---------------      ----- ------------  ---------------
    98      0.860696  4 H  pz                79      0.741017  3 H  pz         
     7      0.563571  1 H  pz               101     -0.552291  4 H  pz         
    82     -0.517938  3 H  pz                10     -0.426842  1 H  pz         
    85      0.240760  3 H  pz                55     -0.203787  2 S  dyz        
    40     -0.183675  2 S  pz                13      0.178363  1 H  pz         
 
 Vector   99  Occ=0.000000D+00  E= 8.690056D+00
              MO Center= -4.8D-01, -1.8D+00,  4.5D-17, r^2= 1.2D+00
   Bfn.  Coefficient  Atom+Function         Bfn.  Coefficient  Atom+Function  
  ----- ------------  ---------------      ----- ------------  ---------------
    96      1.027510  4 H  px                99     -0.672365  4 H  px         
    77      0.525431  3 H  px                76      0.511988  3 H  s          
    41     -0.484637  2 S  s                 75      0.456501  3 H  s          
     6     -0.415902  1 H  py                80     -0.379828  3 H  px         
     9      0.348345  1 H  py                87     -0.228752  3 H  dxy        
 
 Vector  100  Occ=0.000000D+00  E= 8.819783D+00
              MO Center= -6.1D-01, -1.6D+00,  1.7D-16, r^2= 6.4D-01
   Bfn.  Coefficient  Atom+Function         Bfn.  Coefficient  Atom+Function  
  ----- ------------  ---------------      ----- ------------  ---------------
    79      0.964401  3 H  pz                98     -0.863813  4 H  pz         
    82     -0.778580  3 H  pz               101      0.647096  4 H  pz         
    85      0.477866  3 H  pz               104     -0.333694  4 H  pz         
    40     -0.213462  2 S  pz                61      0.148304  2 S  dyz        
   109      0.143840  4 H  dyz               90      0.127954  3 H  dyz        
 
 Vector  101  Occ=0.000000D+00  E= 8.861700D+00
              MO Center= -4.1D-01, -1.4D+00,  1.5D-16, r^2= 9.9D-01
   Bfn.  Coefficient  Atom+Function         Bfn.  Coefficient  Atom+Function  
  ----- ------------  ---------------      ----- ------------  ---------------
    77      0.967031  3 H  px                25      0.909938  2 S  s          
    80     -0.806118  3 H  px                96     -0.671641  4 H  px         
    36     -0.655072  2 S  py                99      0.531162  4 H  px         
    84     -0.516026  3 H  py                 6     -0.403140  1 H  py         
     9      0.380152  1 H  py                78     -0.346290  3 H  py         
 
 Vector  102  Occ=0.000000D+00  E= 9.432365D+00
              MO Center=  1.1D+00, -2.1D-01, -6.1D-17, r^2= 6.7D-01
   Bfn.  Coefficient  Atom+Function         Bfn.  Coefficient  Atom+Function  
  ----- ------------  ---------------      ----- ------------  ---------------
    24      4.551468  2 S  s                 51     -2.537304  2 S  dxx        
     8     -2.134143  1 H  px                25     -1.742694  2 S  s          
     2      1.602159  1 H  s                  5      1.302462  1 H  px         
    63     -1.223744  2 S  fxxx              52      1.153715  2 S  dxy        
    54     -1.158243  2 S  dyy               56     -1.062085  2 S  dzz        
 
 Vector  103  Occ=0.000000D+00  E= 9.608321D+00
              MO Center= -6.4D-01, -1.8D+00, -2.0D-16, r^2= 8.4D-01
   Bfn.  Coefficient  Atom+Function         Bfn.  Coefficient  Atom+Function  
  ----- ------------  ---------------      ----- ------------  ---------------
    24      4.526677  2 S  s                 84     -1.927162  3 H  py         
    54     -1.822964  2 S  dyy               93     -1.752120  4 H  s          
    25      1.478811  2 S  s                 75     -1.385041  3 H  s          
    56     -1.365458  2 S  dzz               51     -1.345353  2 S  dxx        
   100     -1.181684  4 H  py                36     -1.142360  2 S  py         
 
 Vector  104  Occ=0.000000D+00  E= 9.939843D+00
              MO Center= -5.0D-01, -1.3D+00, -1.8D-17, r^2= 8.1D-01
   Bfn.  Coefficient  Atom+Function         Bfn.  Coefficient  Atom+Function  
  ----- ------------  ---------------      ----- ------------  ---------------
    24      2.723758  2 S  s                 81      2.431282  3 H  py         
    25     -2.026056  2 S  s                100      1.617894  4 H  py         
    54     -1.296054  2 S  dyy               78     -1.212710  3 H  py         
    75      1.148277  3 H  s                 93      0.894102  4 H  s          
    51     -0.839449  2 S  dxx              108      0.818912  4 H  dyy        
 
 Vector  105  Occ=0.000000D+00  E= 1.026662D+01
              MO Center=  1.2D-02,  1.2D-01, -3.6D-16, r^2= 9.1D-01
   Bfn.  Coefficient  Atom+Function         Bfn.  Coefficient  Atom+Function  
  ----- ------------  ---------------      ----- ------------  ---------------
    24     18.346942  2 S  s                 56     -6.391952  2 S  dzz        
    54     -6.311078  2 S  dyy               51     -6.187125  2 S  dxx        
    45     -3.298674  2 S  dxx               48     -3.284266  2 S  dyy        
    50     -3.272763  2 S  dzz               25      2.244892  2 S  s          
    22     -1.894107  2 S  s                 41      1.448041  2 S  s          
 
 Vector  106  Occ=0.000000D+00  E= 1.847758D+01
              MO Center= -5.4D-04,  2.2D-01, -2.9D-16, r^2= 2.1D-01
   Bfn.  Coefficient  Atom+Function         Bfn.  Coefficient  Atom+Function  
  ----- ------------  ---------------      ----- ------------  ---------------
    37      1.923293  2 S  pz                31     -1.527230  2 S  pz         
    65     -1.343498  2 S  fxxz              70     -1.336327  2 S  fyyz       
    72     -1.320412  2 S  fzzz              28      1.228747  2 S  pz         
    34      0.718319  2 S  pz                40     -0.358684  2 S  pz         
    44      0.164128  2 S  pz                85     -0.052648  3 H  pz         
 
 Vector  107  Occ=0.000000D+00  E= 1.868347D+01
              MO Center=  1.1D-02,  2.2D-01,  5.2D-17, r^2= 2.1D-01
   Bfn.  Coefficient  Atom+Function         Bfn.  Coefficient  Atom+Function  
  ----- ------------  ---------------      ----- ------------  ---------------
    36      2.393596  2 S  py                35     -1.859414  2 S  px         
    25     -1.363586  2 S  s                 71     -1.311171  2 S  fyzz       
    69     -1.279995  2 S  fyyy              30     -1.161124  2 S  py         
    64     -1.141193  2 S  fxxy              68      1.065856  2 S  fxzz       
    66      1.035896  2 S  fxyy              29      1.025707  2 S  px         
 
 Vector  108  Occ=0.000000D+00  E= 1.869122D+01
              MO Center= -6.6D-04,  2.2D-01,  1.0D-17, r^2= 2.1D-01
   Bfn.  Coefficient  Atom+Function         Bfn.  Coefficient  Atom+Function  
  ----- ------------  ---------------      ----- ------------  ---------------
    36      2.527691  2 S  py                35      2.482049  2 S  px         
    64     -1.308744  2 S  fxxy              68     -1.313931  2 S  fxzz       
    71     -1.263203  2 S  fyzz              63     -1.246174  2 S  fxxx       
    66     -1.243867  2 S  fxyy              69     -1.241836  2 S  fyyy       
    29     -1.161937  2 S  px                75      1.133140  3 H  s          
 
 Vector  109  Occ=0.000000D+00  E= 2.494512D+01
              MO Center= -3.0D-04,  2.2D-01,  3.5D-17, r^2= 2.7D-01
   Bfn.  Coefficient  Atom+Function         Bfn.  Coefficient  Atom+Function  
  ----- ------------  ---------------      ----- ------------  ---------------
    24     16.583027  2 S  s                 23     15.728349  2 S  s          
    22    -12.140138  2 S  s                 45     -6.902674  2 S  dxx        
    48     -6.901618  2 S  dyy               50     -6.913131  2 S  dzz        
    51     -5.095579  2 S  dxx               54     -5.098108  2 S  dyy        
    56     -5.060141  2 S  dzz               41      0.681259  2 S  s          
 
 Vector  110  Occ=0.000000D+00  E= 2.192924D+02
              MO Center=  2.7D-05,  2.2D-01, -8.3D-19, r^2= 3.4D-02
   Bfn.  Coefficient  Atom+Function         Bfn.  Coefficient  Atom+Function  
  ----- ------------  ---------------      ----- ------------  ---------------
    23      7.664807  2 S  s                 22     -6.375380  2 S  s          
    24      5.528131  2 S  s                 45     -2.804832  2 S  dxx        
    48     -2.804710  2 S  dyy               50     -2.809443  2 S  dzz        
    21      2.293766  2 S  s                 51     -1.723189  2 S  dxx        
    54     -1.721711  2 S  dyy               56     -1.703644  2 S  dzz        
 

   alpha - beta orbital overlaps 
   ----------------------------- 


   alpha      1      2      3      4      5      6      7      8      9     10
    beta      1      2      3      4      5      6      7      8     10      9
 overlap   1.000  1.000  0.742  0.742  1.000  1.000  0.968  0.967  0.966  1.000


   alpha     11     12     13     14     15     16     17     18     19     20
    beta     11     12     14     13     15     16     17     18     19     20
 overlap   0.992  0.978  0.869  0.906  0.999  0.977  0.816  0.830  0.942  0.983


   alpha     21     22     23     24     25     26     27     28     29     30
    beta     21     22     23     24     26     25     27     28     29     30
 overlap   0.994  0.998  0.933  0.839  0.824  0.848  0.710  0.846  0.747  0.942


   alpha     31     32     33     34     35     36     37     38     39     40
    beta     31     32     33     34     35     36     37     38     39     40
 overlap   0.968  0.989  0.999  0.979  0.974  0.999  0.997  0.938  0.941  0.989


   alpha     41     42     43     44     45     46     47     48     49     50
    beta     41     42     43     44     45     46     47     48     49     50
 overlap   0.943  0.970  0.943  0.970  0.995  1.000  0.999  0.995  0.997  0.941


   alpha     51     52     53     54     55     56     57     58     59     60
    beta     52     51     54     53     53     56     57     58     59     60
 overlap   0.975  0.933  0.772  0.728  0.677  0.781  0.936  0.982  0.987  0.987


   alpha     61     62     63     64     65     66     67     68     69     70
    beta     61     62     63     64     65     66     67     68     69     70
 overlap   0.983  0.983  0.976  0.975  0.998  0.875  0.874  0.995  0.988  0.985


   alpha     71     72     73     74     75     76     77     78     79     80
    beta     71     72     73     75     74     76     77     78     79     80
 overlap   0.996  0.869  0.904  0.871  0.998  0.901  0.997  0.995  0.996  1.000


   alpha     81     82     83     84     85     86     87     88     89     90
    beta     81     82     83     84     85     86     87     88     90     89
 overlap   1.000  0.992  0.982  0.999  0.972  0.974  0.993  0.996  0.996  1.000


   alpha     91     92     93     94     95     96     97     98     99    100
    beta     91     92     93     94     95     98     97     96     99    100
 overlap   0.999  0.999  0.998  0.996  0.997  0.719  0.805  0.809  0.786  0.908


   alpha    101    102    103    104    105    106    107    108    109    110
    beta    101    102    103    104    105    106    107    108    109    110
 overlap   0.898  0.965  0.947  0.978  0.998  1.000  0.948  0.948  1.000  1.000


     --------------------------
     Expectation value of S2:  
     --------------------------
      <S2> =      0.7580 (Exact =     0.7500)
 

 center of mass
 --------------
 x =   0.00000000 y =   0.19095569 z =   0.00000000

 moments of inertia (a.u.)
 ------------------
          27.038160669308          -7.135077821037           0.000000000000
          -7.135077821037           8.721797775943           0.000000000000
           0.000000000000           0.000000000000          35.759958445251
 
     Multipole analysis of the density
     ---------------------------------
 
     L   x y z        total         alpha         beta         nuclear
     -   - - -        -----         -----         ----         -------
     0   0 0 0     -0.000000    -10.000000     -9.000000     19.000000
 
     1   1 0 0      0.185669      0.564782     -0.379113     -0.000000
     1   0 1 0     -0.293109      1.240131     -1.533240      0.000000
     1   0 0 1      0.000000     -0.000000      0.000000      0.000000
 
     2   2 0 0    -10.316737    -10.717116     -8.253701      8.654080
     2   1 1 0      0.187810     -5.871501     -1.020368      7.079679
     2   1 0 1      0.000000     -0.000000      0.000000      0.000000
     2   0 2 0    -11.203301    -25.778071    -10.723472     25.298242
     2   0 1 1      0.000000      0.000000     -0.000000      0.000000
     2   0 0 2    -13.278609     -7.051671     -6.226938      0.000000
 

 Parallel integral file used     203 records with       0 large values


 Task  times  cpu:        3.2s     wall:        4.6s
 
 
                                NWChem Input Module
                                -------------------
 
 
 Summary of allocated global arrays
-----------------------------------
  No active global arrays



                         GA Statistics for process    0
                         ------------------------------

       create   destroy   get      put      acc     scatter   gather  read&inc
calls:  305      305     2277      774      618        0        0       83     
number of processes/call 4.26e+00 2.65e+00 5.32e+00 0.00e+00 0.00e+00
bytes total:             4.21e+07 4.22e+06 2.00e+07 0.00e+00 0.00e+00 6.64e+02
bytes remote:            3.56e+07 3.50e+06 1.65e+07 0.00e+00 0.00e+00 0.00e+00
Max memory consumed for GA by this process: 563368 bytes
 
MA_summarize_allocated_blocks: starting scan ...
MA_summarize_allocated_blocks: scan completed: 0 heap blocks, 0 stack blocks
MA usage statistics:

	allocation statistics:
					      heap	     stack
					      ----	     -----
	current number of blocks	         0	         0
	maximum number of blocks	        21	        53
	current total bytes		         0	         0
	maximum total bytes		  20348824	  24140504
	maximum total K-bytes		     20349	     24141
	maximum total M-bytes		        21	        25
 
 
                                     CITATION
                                     --------
                Please cite the following reference when publishing
                           results obtained with NWChem:
 
                 M. Valiev, E.J. Bylaska, N. Govind, K. Kowalski,
              T.P. Straatsma, H.J.J. van Dam, D. Wang, J. Nieplocha,
                        E. Apra, T.L. Windus, W.A. de Jong
                 "NWChem: a comprehensive and scalable open-source
                  solution for large scale molecular simulations"
                      Comput. Phys. Commun. 181, 1477 (2010)
                           doi:10.1016/j.cpc.2010.04.018
 
                                      AUTHORS
                                      -------
          E. Apra, E. J. Bylaska, W. A. de Jong, N. Govind, K. Kowalski,
       T. P. Straatsma, M. Valiev, H. J. J. van Dam, D. Wang, T. L. Windus,
        J. Hammond, J. Autschbach, K. Bhaskaran-Nair, J. Brabec, K. Lopata,
    S. A. Fischer, S. Krishnamoorthy, M. Jacquelin, W. Ma, M. Klemm, O. Villa,
      Y. Chen, V. Anisimov, F. Aquino, S. Hirata, M. T. Hackler, V. Konjkov,
            D. Mejia-Rodriguez, T. Risthaus, M. Malagoli, A. Marenich,
   A. Otero-de-la-Roza, J. Mullin, P. Nichols, R. Peverati, J. Pittner, Y. Zhao,
        P.-D. Fan, A. Fonari, M. J. Williamson, R. J. Harrison, J. R. Rehr,
      M. Dupuis, D. Silverstein, D. M. A. Smith, J. Nieplocha, V. Tipparaju,
    M. Krishnan, B. E. Van Kuiken, A. Vazquez-Mayagoitia, L. Jensen, M. Swart,
      Q. Wu, T. Van Voorhis, A. A. Auer, M. Nooijen, L. D. Crosby, E. Brown,
      G. Cisneros, G. I. Fann, H. Fruchtl, J. Garza, K. Hirao, R. A. Kendall,
      J. A. Nichols, K. Tsemekhman, K. Wolinski, J. Anchell, D. E. Bernholdt,
      P. Borowski, T. Clark, D. Clerc, H. Dachsel, M. J. O. Deegan, K. Dyall,
    D. Elwood, E. Glendening, M. Gutowski, A. C. Hess, J. Jaffe, B. G. Johnson,
     J. Ju, R. Kobayashi, R. Kutteh, Z. Lin, R. Littlefield, X. Long, B. Meng,
      T. Nakajima, S. Niu, L. Pollack, M. Rosing, K. Glaesemann, G. Sandrone,
      M. Stave, H. Taylor, G. Thomas, J. H. van Lenthe, A. T. Wong, Z. Zhang.

 Total times  cpu:        3.4s     wall:        5.0s
