 argument  1 = /storage/home/rabeet/work/nwc/hb6/nwtpss/C2H2-C2H2.nw
  NWChem w/ OpenMP: maximum threads =  1
                                         
                                         
 
 
              Northwest Computational Chemistry Package (NWChem) 6.8
              ------------------------------------------------------
 
 
                    Environmental Molecular Sciences Laboratory
                       Pacific Northwest National Laboratory
                                Richland, WA 99352
 
                              Copyright (c) 1994-2018
                       Pacific Northwest National Laboratory
                            Battelle Memorial Institute
 
             NWChem is an open-source computational chemistry package
                        distributed under the terms of the
                      Educational Community License (ECL) 2.0
             A copy of the license is included with this distribution
                              in the LICENSE.TXT file
 
                                  ACKNOWLEDGMENT
                                  --------------

            This software and its documentation were developed at the
            EMSL at Pacific Northwest National Laboratory, a multiprogram
            national laboratory, operated for the U.S. Department of Energy
            by Battelle under Contract Number DE-AC05-76RL01830. Support
            for this work was provided by the Department of Energy Office
            of Biological and Environmental Research, Office of Basic
            Energy Sciences, and the Office of Advanced Scientific Computing.


           Job information
           ---------------

    hostname        = r8n4.niserhpc.org
    program         = /home/rabeet/nwchem-6.8/bin/LINUX64/nwchem
    date            = Sun Oct 27 08:44:55 2019

    compiled        = Fri_Jun_28_18:24:12_2019
    source          = /home/rabeet/nwchem-6.8
    nwchem branch   = Development
    nwchem revision = N/A
    ga revision     = 5.6.5
    use scalapack   = T
    input           = /storage/home/rabeet/work/nwc/hb6/nwtpss/C2H2-C2H2.nw
    prefix          = C2H2-C2H2.
    data base       = ./C2H2-C2H2.db
    status          = startup
    nproc           =       16
    time left       =     -1s



           Memory information
           ------------------

    heap     =   13107200 doubles =    100.0 Mbytes
    stack    =   13107197 doubles =    100.0 Mbytes
    global   =   26214400 doubles =    200.0 Mbytes (distinct from heap & stack)
    total    =   52428797 doubles =    400.0 Mbytes
    verify   = yes
    hardfail = no 


           Directory information
           ---------------------
 
  0 permanent = .
  0 scratch   = .
 
 
 
 
                                NWChem Input Module
                                -------------------
 
 

 Scaling coordinates for geometry "geometry" by  1.889725989
 (inverse scale =  0.529177249)

 C2H symmetry detected

          ------
          auto-z
          ------
  autoz: The atoms group into disjoint clusters
 cluster   1:    1    2    3    4 
 cluster   2:    5    6    7    8 
 Clusters   1   2 closest atoms are    3    7 r = 2.88 ... close but too far?
     1 autoz failed with cvr_scaling = 1.2 changing to 1.3
  autoz: The atoms group into disjoint clusters
 cluster   1:    1    2    3    4 
 cluster   2:    5    6    7    8 
 Connecting clusters   1   2 via atoms    3    7 r = 2.88
  autoz: regenerating connections with new bonds
  no constraints, skipping   0.000000000000000E+000
  no constraints, skipping   0.000000000000000E+000
 
 
                             Geometry "geometry" -> ""
                             -------------------------
 
 Output coordinates in angstroms (scale by  1.889725989 to convert to a.u.)
 
  No.       Tag          Charge          X              Y              Z
 ---- ---------------- ---------- -------------- -------------- --------------
    1 C                    6.0000    -0.51343561     1.65010179     0.00000000
    2 C                    6.0000     0.25664037     2.58191431     0.00000000
    3 H                    1.0000    -1.18390607     0.82061001     0.00000000
    4 H                    1.0000     0.92992104     3.40835068     0.00000000
    5 C                    6.0000     0.51343561    -1.65010179     0.00000000
    6 C                    6.0000    -0.25664037    -2.58191431     0.00000000
    7 H                    1.0000     1.18390607    -0.82061001     0.00000000
    8 H                    1.0000    -0.92992104    -3.40835068     0.00000000
 
      Atomic Mass 
      ----------- 
 
      C                 12.000000
      H                  1.007825
 

 Effective nuclear repulsion energy (a.u.)      74.2161920227

            Nuclear Dipole moment (a.u.) 
            ----------------------------
        X                 Y               Z
 ---------------- ---------------- ----------------
    -0.0000000000    -0.0000000000     0.0000000000
 
      Symmetry information
      --------------------
 
 Group name             C2h       
 Group number             21
 Group order               4
 No. of unique centers     4
 
      Symmetry unique atoms
 
     1    2    3    4
 


                                Z-matrix (autoz)
                                -------- 

 Units are Angstrom for bonds and degrees for angles
 
      Type          Name      I     J     K     L     M      Value
      ----------- --------  ----- ----- ----- ----- ----- ----------
    1 Stretch                  1     2                       1.20884
    2 Stretch                  1     3                       1.06658
    3 Stretch                  2     4                       1.06598
    4 Stretch                  3     7                       2.88100
    5 Stretch                  5     6                       1.20884
    6 Stretch                  5     7                       1.06658
    7 Stretch                  6     8                       1.06598
    8 Bend                     1     3     7                85.77901
    9 Bend                     2     3     7                85.44803
   10 Bend                     3     7     5                85.77901
   11 Bend                     4     3     7                85.48321
   12 Bend                     6     7     3                85.44803
   13 Bend                     8     7     3                85.48321
   14 Torsion                  1     3     7     5         180.00000
   15 Torsion                  6     5     3     7         180.00000
   16 Torsion                  3     7     2     4         180.00000
   17 Torsion                  4     3     7     5         180.00000
   18 Torsion                  2     1     7     3         180.00000
   19 Torsion                  7     3     6     8         180.00000
   20 Torsion                  1     3     7     8         180.00000
 
 
            XYZ format geometry
            -------------------
     8
 geometry
 C                    -0.51343561     1.65010179     0.00000000
 C                     0.25664037     2.58191431     0.00000000
 H                    -1.18390607     0.82061001     0.00000000
 H                     0.92992104     3.40835068     0.00000000
 C                     0.51343561    -1.65010179     0.00000000
 C                    -0.25664037    -2.58191431     0.00000000
 H                     1.18390607    -0.82061001     0.00000000
 H                    -0.92992104    -3.40835068     0.00000000
 
 ==============================================================================
                                internuclear distances
 ------------------------------------------------------------------------------
       center one      |      center two      | atomic units |  angstroms
 ------------------------------------------------------------------------------
    2 C                |   1 C                |     2.28437  |     1.20884
    3 H                |   1 C                |     2.01554  |     1.06658
    4 H                |   2 C                |     2.01440  |     1.06598
    6 C                |   5 C                |     2.28437  |     1.20884
    7 H                |   5 C                |     2.01554  |     1.06658
    8 H                |   6 C                |     2.01440  |     1.06598
 ------------------------------------------------------------------------------
                         number of included internuclear distances:          6
 ==============================================================================



 ==============================================================================
                                 internuclear angles
 ------------------------------------------------------------------------------
        center 1       |       center 2       |       center 3       |  degrees
 ------------------------------------------------------------------------------
    2 C                |   1 C                |   3 H                |   179.38
    1 C                |   2 C                |   4 H                |   179.60
    6 C                |   5 C                |   7 H                |   179.38
    5 C                |   6 C                |   8 H                |   179.60
 ------------------------------------------------------------------------------
                            number of included internuclear angles:          4
 ==============================================================================





 Summary of "ao basis" -> "" (cartesian)
 ------------------------------------------------------------------------------
       Tag                 Description            Shells   Functions and Types
 ---------------- ------------------------------  ------  ---------------------
 *                     6-311++G(3df,3pd)              on all atoms 


 
                                 NWChem DFT Module
                                 -----------------
 
 
                      Basis "ao basis" -> "ao basis" (cartesian)
                      -----
  C (Carbon)
  ----------
            Exponent  Coefficients 
       -------------- ---------------------------------------------------------
  1 S  4.56324000E+03  0.001967
  1 S  6.82024000E+02  0.015231
  1 S  1.54973000E+02  0.076127
  1 S  4.44553000E+01  0.260801
  1 S  1.30290000E+01  0.616462
  1 S  1.82773000E+00  0.221006
 
  2 S  2.09642000E+01  0.114660
  2 S  4.80331000E+00  0.919999
  2 S  1.45933000E+00 -0.003031
 
  3 P  2.09642000E+01  0.040249
  3 P  4.80331000E+00  0.237594
  3 P  1.45933000E+00  0.815854
 
  4 S  4.83456000E-01  1.000000
 
  5 P  4.83456000E-01  1.000000
 
  6 S  1.45585000E-01  1.000000
 
  7 P  1.45585000E-01  1.000000
 
  8 S  4.38000000E-02  1.000000
 
  9 P  4.38000000E-02  1.000000
 
 10 D  2.50400000E+00  1.000000
 
 11 D  6.26000000E-01  1.000000
 
 12 D  1.56500000E-01  1.000000
 
 13 F  8.00000000E-01  1.000000
 
  H (Hydrogen)
  ------------
            Exponent  Coefficients 
       -------------- ---------------------------------------------------------
  1 S  3.38650000E+01  0.025494
  1 S  5.09479000E+00  0.190373
  1 S  1.15879000E+00  0.852161
 
  2 S  3.25840000E-01  1.000000
 
  3 S  1.02741000E-01  1.000000
 
  4 S  3.60000000E-02  1.000000
 
  5 P  3.00000000E+00  1.000000
 
  6 P  7.50000000E-01  1.000000
 
  7 P  1.87500000E-01  1.000000
 
  8 D  1.00000000E+00  1.000000
 


 Summary of "ao basis" -> "ao basis" (cartesian)
 ------------------------------------------------------------------------------
       Tag                 Description            Shells   Functions and Types
 ---------------- ------------------------------  ------  ---------------------
 C                     6-311++G(3df,3pd)            13       45   5s4p3d1f
 H                     6-311++G(3df,3pd)             8       19   4s3p1d




 Summary of "ao basis" -> "ao basis" (cartesian)
 ------------------------------------------------------------------------------
       Tag                 Description            Shells   Functions and Types
 ---------------- ------------------------------  ------  ---------------------
 C                     6-311++G(3df,3pd)            13       45   5s4p3d1f
 H                     6-311++G(3df,3pd)             8       19   4s3p1d


      Symmetry analysis of basis
      --------------------------
 
        ag         90
        au         38
        bg         38
        bu         90
 
  Caching 1-el integrals 
 
            General Information
            -------------------
          SCF calculation type: DFT
          Wavefunction type:  closed shell.
          No. of atoms     :     8
          No. of electrons :    28
           Alpha electrons :    14
            Beta electrons :    14
          Charge           :     0
          Spin multiplicity:     1
          Use of symmetry is: on ; symmetry adaption is: on 
          Maximum number of iterations: ***
          AO basis - number of functions:   256
                     number of shells:    84
          Convergence on energy requested:  1.00D-06
          Convergence on density requested:  1.00D-05
          Convergence on gradient requested:  5.00D-04
 
              XC Information
              --------------
                  TPSS metaGGA Exchange Functional  1.000          
             TPSS03 metaGGA Correlation Functional  1.000          
 
             Grid Information
             ----------------
          Grid used for XC integration:  medium    
          Radial quadrature: Mura-Knowles        
          Angular quadrature: Lebedev. 
          Tag              B.-S. Rad. Rad. Pts. Rad. Cut. Ang. Pts.
          ---              ---------- --------- --------- ---------
          C                   0.70       49          17.0       434
          H                   0.35       45          19.0       434
          Grid pruning is: on 
          Number of quadrature shells:   188
          Spatial weights used:  Erf1
 
          Convergence Information
          -----------------------
          Convergence aids based upon iterative change in 
          total energy or number of iterations. 
          Levelshifting, if invoked, occurs when the 
          HOMO/LUMO gap drops below (HL_TOL):  1.00D-02
          DIIS, if invoked, will attempt to extrapolate 
          using up to (NFOCK): 10 stored Fock matrices.

                    Damping( 0%)  Levelshifting(0.5)       DIIS
                  --------------- ------------------- ---------------
          dE  on:    start            ASAP                start   
          dE off:    2 iters        *** iters           *** iters 

 
      Screening Tolerance Information
      -------------------------------
          Density screening/tol_rho:  1.00D-10
          AO Gaussian exp screening on grid/accAOfunc:  14
          CD Gaussian exp screening on grid/accCDfunc:  20
          XC Gaussian exp screening on grid/accXCfunc:  20
          Schwarz screening/accCoul:  1.00D-08

 
 WARNING : Found     4 linear dependencies 
 S eigenvalue threshold:     1.00000E-05
 Smallest S eigenvalue :     2.63746E-07
 Largest  S eigenvalue :     5.48173E-06
 

 !! The overlap matrix has   4 vectors deemed linearly dependent with
    eigenvalues:
 2.64D-07 2.83D-07 5.36D-06 5.48D-06
 
 
      Superposition of Atomic Density Guess
      -------------------------------------
 
 Sum of atomic energies:        -152.67574416
 
      Non-variational initial energy
      ------------------------------

 Total energy =    -154.321040
 1-e energy   =    -349.285013
 2-e energy   =     120.747781
 HOMO         =      -0.359578
 LUMO         =       0.026116
 
 
      Symmetry analysis of molecular orbitals - initial
      -------------------------------------------------
 
  Numbering of irreducible representations: 
 
     1 ag          2 au          3 bg          4 bu      
 
  Orbital symmetries:
 
     1 ag          2 bu          3 ag          4 bu          5 ag      
     6 bu          7 ag          8 bu          9 ag         10 bu      
    11 ag         12 au         13 bg         14 bu         15 ag      
    16 au         17 ag         18 bu         19 bg         20 bu      
    21 bu         22 ag         23 au         24 bu      
 
   Time after variat. SCF:      1.8
   Time prior to 1st pass:      1.8
  int2e_file: Failed to allocate cache ... halving
  int2e_file: Failed to allocate cache ... halving
  int2e_file: Failed to allocate cache ... halving
  int2e_file: Failed to allocate cache ... halving
  int2e_file: Failed to allocate cache ... halving
  int2e_file: Failed to allocate cache ... halving
  int2e_file: Failed to allocate cache ... halving
  int2e_file: Failed to allocate cache ... halving
  int2e_file: Failed to allocate cache ... halving
  int2e_file: Failed to allocate cache ... halving
  int2e_file: Failed to allocate cache ... halving
  int2e_file: Failed to allocate cache ... halving
  int2e_file: Failed to allocate cache ... halving

 Integral file          = ./C2H2-C2H2.aoints.00
 Record size in doubles =    65536    No. of integs per rec  =    32766
 Max. records in memory =      340    Max. records in file   =  8904087
 No. of bits per label  =       16    No. of bits per value  =       64

  int2e_file: Failed to allocate cache ... halving
  int2e_file: Failed to allocate cache ... halving
  int2e_file: Failed to allocate cache ... halving

 #quartets = 2.412D+06 #integrals = 8.307D+07 #direct =  0.0% #cached =100.0%


File balance: exchanges=    63  moved=   186  time=   0.0


 Grid_pts file          = ./C2H2-C2H2.gridpts.00
 Record size in doubles =  12289        No. of grid_pts per rec  =   3070
 Max. records in memory =      3        Max. recs in file   =  47483661

 Grid integrated density:      27.989564190087
 Requested integration accuracy:   0.10E-05

           Memory utilization after 1st SCF pass: 
           Heap Space remaining (MW):        1.87             1870144
          Stack Space remaining (MW):       13.11            13105716

   convergence    iter        energy       DeltaE   RMS-Dens  Diis-err    time
 ---------------- ----- ----------------- --------- --------- ---------  ------
 d= 0,ls=0.0,diis     1   -154.6859476524 -2.29D+02  2.18D-03  6.04D-01     4.3
 d= 0,ls=0.0,diis     2   -154.7351238628 -4.92D-02  8.94D-04  6.87D-02     4.7
 d= 0,ls=0.0,diis     3   -154.7389158308 -3.79D-03  4.14D-04  4.10D-02     5.1
 d= 0,ls=0.0,diis     4   -154.7413399522 -2.42D-03  2.11D-04  2.25D-02     5.6
 d= 0,ls=0.0,diis     5   -154.7440849945 -2.75D-03  5.17D-05  1.30D-03     6.3
  Resetting Diis
 d= 0,ls=0.0,diis     6   -154.7442572793 -1.72D-04  2.46D-06  9.59D-07     6.7
 d= 0,ls=0.0,diis     7   -154.7442574018 -1.22D-07  6.85D-07  4.44D-08     7.2


         Total DFT energy =     -154.744257401782
      One electron energy =     -353.257021311942
           Coulomb energy =      147.329415518532
          Exchange energy =      -22.167263329782
       Correlation energy =       -0.865580301248
 Nuclear repulsion energy =       74.216192022659

 Numeric. integr. density =       28.000001119867

     Total iterative time =      5.3s


 
                  Occupations of the irreducible representations
                  ----------------------------------------------
 
                     irrep           alpha         beta
                     --------     --------     --------
                     ag                6.0          6.0
                     au                1.0          1.0
                     bg                1.0          1.0
                     bu                6.0          6.0
 
 
                       DFT Final Molecular Orbital Analysis
                       ------------------------------------
 
 Vector    1  Occ=2.000000D+00  E=-9.998037D+00  Symmetry=bu
              MO Center=  2.4D-12, -7.3D-11,  1.4D-22, r^2= 5.2D+00
   Bfn.  Coefficient  Atom+Function         Bfn.  Coefficient  Atom+Function  
  ----- ------------  ---------------      ----- ------------  ---------------
    46      0.301124  2 C  s                174     -0.301124  6 C  s          
     1      0.261028  1 C  s                129     -0.261028  5 C  s          
    47      0.248267  2 C  s                175     -0.248267  6 C  s          
     2      0.215209  1 C  s                130     -0.215209  5 C  s          
 
 Vector    2  Occ=2.000000D+00  E=-9.998037D+00  Symmetry=ag
              MO Center= -2.5D-12,  7.3D-11, -4.1D-35, r^2= 5.2D+00
   Bfn.  Coefficient  Atom+Function         Bfn.  Coefficient  Atom+Function  
  ----- ------------  ---------------      ----- ------------  ---------------
    46      0.301124  2 C  s                174      0.301124  6 C  s          
     1      0.261027  1 C  s                129      0.261027  5 C  s          
    47      0.248271  2 C  s                175      0.248271  6 C  s          
     2      0.215209  1 C  s                130      0.215209  5 C  s          
 
 Vector    3  Occ=2.000000D+00  E=-9.996002D+00  Symmetry=ag
              MO Center=  5.1D-14,  6.0D-14, -3.5D-35, r^2= 4.6D+00
   Bfn.  Coefficient  Atom+Function         Bfn.  Coefficient  Atom+Function  
  ----- ------------  ---------------      ----- ------------  ---------------
     1      0.301245  1 C  s                129      0.301245  5 C  s          
    46     -0.261171  2 C  s                174     -0.261171  6 C  s          
     2      0.248440  1 C  s                130      0.248440  5 C  s          
    47     -0.215394  2 C  s                175     -0.215394  6 C  s          
 
 Vector    4  Occ=2.000000D+00  E=-9.996002D+00  Symmetry=bu
              MO Center=  1.7D-17, -9.8D-17,  8.7D-37, r^2= 4.6D+00
   Bfn.  Coefficient  Atom+Function         Bfn.  Coefficient  Atom+Function  
  ----- ------------  ---------------      ----- ------------  ---------------
     1      0.301245  1 C  s                129     -0.301245  5 C  s          
    46     -0.261171  2 C  s                174      0.261171  6 C  s          
     2      0.248438  1 C  s                130     -0.248438  5 C  s          
    47     -0.215394  2 C  s                175      0.215394  6 C  s          
 
 Vector    5  Occ=2.000000D+00  E=-7.015385D-01  Symmetry=ag
              MO Center= -1.1D-17,  8.6D-16,  3.5D-32, r^2= 5.3D+00
   Bfn.  Coefficient  Atom+Function         Bfn.  Coefficient  Atom+Function  
  ----- ------------  ---------------      ----- ------------  ---------------
     6      0.260496  1 C  s                134      0.260496  5 C  s          
    51      0.258794  2 C  s                179      0.258794  6 C  s          
    55      0.173338  2 C  s                183      0.173338  6 C  s          
    10      0.172236  1 C  s                138      0.172236  5 C  s          
     2     -0.110798  1 C  s                130     -0.110798  5 C  s          
 
 Vector    6  Occ=2.000000D+00  E=-6.996105D-01  Symmetry=bu
              MO Center=  2.6D-15,  2.8D-15,  2.5D-16, r^2= 5.4D+00
   Bfn.  Coefficient  Atom+Function         Bfn.  Coefficient  Atom+Function  
  ----- ------------  ---------------      ----- ------------  ---------------
    51      0.262999  2 C  s                179     -0.262999  6 C  s          
     6      0.259047  1 C  s                134     -0.259047  5 C  s          
    10      0.171089  1 C  s                138     -0.171089  5 C  s          
    55      0.170014  2 C  s                183     -0.170014  6 C  s          
    47     -0.111337  2 C  s                175      0.111337  6 C  s          
 
 Vector    7  Occ=2.000000D+00  E=-5.327283D-01  Symmetry=ag
              MO Center= -2.2D-14,  3.5D-13,  1.3D-16, r^2= 6.6D+00
   Bfn.  Coefficient  Atom+Function         Bfn.  Coefficient  Atom+Function  
  ----- ------------  ---------------      ----- ------------  ---------------
    51     -0.192839  2 C  s                179     -0.192839  6 C  s          
     6      0.185405  1 C  s                134      0.185405  5 C  s          
    92      0.124175  3 H  s                111     -0.124142  4 H  s          
   220      0.124175  7 H  s                239     -0.124142  8 H  s          
    91      0.096145  3 H  s                110     -0.095854  4 H  s          
 
 Vector    8  Occ=2.000000D+00  E=-5.274959D-01  Symmetry=bu
              MO Center=  1.7D-14, -3.6D-13, -2.1D-29, r^2= 7.0D+00
   Bfn.  Coefficient  Atom+Function         Bfn.  Coefficient  Atom+Function  
  ----- ------------  ---------------      ----- ------------  ---------------
     6      0.196073  1 C  s                134     -0.196073  5 C  s          
    51     -0.186534  2 C  s                179      0.186534  6 C  s          
   111     -0.129127  4 H  s                239      0.129127  8 H  s          
    92      0.120816  3 H  s                220     -0.120816  7 H  s          
   110     -0.100346  4 H  s                238      0.100346  8 H  s          
 
 Vector    9  Occ=2.000000D+00  E=-4.582766D-01  Symmetry=ag
              MO Center= -1.9D-14,  2.8D-13, -1.9D-16, r^2= 6.6D+00
   Bfn.  Coefficient  Atom+Function         Bfn.  Coefficient  Atom+Function  
  ----- ------------  ---------------      ----- ------------  ---------------
   111      0.149055  4 H  s                239      0.149055  8 H  s          
    92      0.142463  3 H  s                220      0.142463  7 H  s          
     8     -0.117933  1 C  py               136      0.117933  5 C  py         
    53      0.115671  2 C  py               181     -0.115671  6 C  py         
     4     -0.105406  1 C  py               132      0.105406  5 C  py         
 
 Vector   10  Occ=2.000000D+00  E=-4.549623D-01  Symmetry=bu
              MO Center=  2.3D-14, -2.7D-13, -1.1D-29, r^2= 6.2D+00
   Bfn.  Coefficient  Atom+Function         Bfn.  Coefficient  Atom+Function  
  ----- ------------  ---------------      ----- ------------  ---------------
    92      0.151408  3 H  s                220     -0.151408  7 H  s          
   111      0.138608  4 H  s                239     -0.138608  8 H  s          
     8     -0.116574  1 C  py               136     -0.116574  5 C  py         
    53      0.112835  2 C  py               181      0.112835  6 C  py         
     4     -0.105363  1 C  py               132     -0.105363  5 C  py         
 
 Vector   11  Occ=2.000000D+00  E=-2.698272D-01  Symmetry=ag
              MO Center=  2.6D-15, -7.4D-14,  1.9D-16, r^2= 5.7D+00
   Bfn.  Coefficient  Atom+Function         Bfn.  Coefficient  Atom+Function  
  ----- ------------  ---------------      ----- ------------  ---------------
     7      0.151563  1 C  px               135     -0.151563  5 C  px         
    52      0.139824  2 C  px               180     -0.139824  6 C  px         
    56      0.125119  2 C  px               184     -0.125119  6 C  px         
    53     -0.119994  2 C  py               181      0.119994  6 C  py         
     8     -0.112858  1 C  py               136      0.112858  5 C  py         
 
 Vector   12  Occ=2.000000D+00  E=-2.663534D-01  Symmetry=au
              MO Center=  8.3D-14, -1.4D-12, -1.1D-16, r^2= 5.8D+00
   Bfn.  Coefficient  Atom+Function         Bfn.  Coefficient  Atom+Function  
  ----- ------------  ---------------      ----- ------------  ---------------
     9      0.188897  1 C  pz               137      0.188897  5 C  pz         
    54      0.187824  2 C  pz               182      0.187824  6 C  pz         
    13      0.144881  1 C  pz               141      0.144881  5 C  pz         
    58      0.143930  2 C  pz               186      0.143930  6 C  pz         
     5      0.138401  1 C  pz                50      0.137728  2 C  pz         
 
 Vector   13  Occ=2.000000D+00  E=-2.636441D-01  Symmetry=bg
              MO Center= -9.3D-14,  1.4D-12,  1.5D-16, r^2= 5.9D+00
   Bfn.  Coefficient  Atom+Function         Bfn.  Coefficient  Atom+Function  
  ----- ------------  ---------------      ----- ------------  ---------------
    54      0.191345  2 C  pz               182     -0.191345  6 C  pz         
     9      0.189356  1 C  pz               137     -0.189356  5 C  pz         
    58      0.147480  2 C  pz               186     -0.147480  6 C  pz         
    13      0.145815  1 C  pz               141     -0.145815  5 C  pz         
    50      0.140291  2 C  pz               178     -0.140291  6 C  pz         
 
 Vector   14  Occ=2.000000D+00  E=-2.617948D-01  Symmetry=bu
              MO Center= -4.8D-15,  7.4D-14, -3.7D-17, r^2= 5.9D+00
   Bfn.  Coefficient  Atom+Function         Bfn.  Coefficient  Atom+Function  
  ----- ------------  ---------------      ----- ------------  ---------------
    52      0.150990  2 C  px               180      0.150990  6 C  px         
     7      0.136658  1 C  px               135      0.136658  5 C  px         
    11      0.133931  1 C  px               139      0.133931  5 C  px         
     8     -0.125969  1 C  py               136     -0.125969  5 C  py         
    53     -0.120558  2 C  py               181     -0.120558  6 C  py         
 
 Vector   15  Occ=0.000000D+00  E=-1.876820D-02  Symmetry=ag
              MO Center=  1.4D-14, -2.8D-14,  9.5D-16, r^2= 8.2D+00
   Bfn.  Coefficient  Atom+Function         Bfn.  Coefficient  Atom+Function  
  ----- ------------  ---------------      ----- ------------  ---------------
    94      0.529034  3 H  s                222      0.529034  7 H  s          
    16      0.444958  1 C  py               144     -0.444958  5 C  py         
    14     -0.410832  1 C  s                142     -0.410832  5 C  s          
    61     -0.368598  2 C  py               189      0.368598  6 C  py         
    59     -0.311908  2 C  s                187     -0.311908  6 C  s          
 
 Vector   16  Occ=0.000000D+00  E=-1.232185D-02  Symmetry=au
              MO Center=  1.6D-14, -5.1D-14,  1.1D-14, r^2= 7.6D+00
   Bfn.  Coefficient  Atom+Function         Bfn.  Coefficient  Atom+Function  
  ----- ------------  ---------------      ----- ------------  ---------------
    17      0.441894  1 C  pz               145      0.441894  5 C  pz         
    62     -0.428372  2 C  pz               190     -0.428372  6 C  pz         
    58     -0.255894  2 C  pz               186     -0.255894  6 C  pz         
    13      0.238154  1 C  pz               141      0.238154  5 C  pz         
    54     -0.183235  2 C  pz               182     -0.183235  6 C  pz         
 
 Vector   17  Occ=0.000000D+00  E=-4.650202D-03  Symmetry=bg
              MO Center= -6.0D-15,  6.6D-14,  5.7D-15, r^2= 8.5D+00
   Bfn.  Coefficient  Atom+Function         Bfn.  Coefficient  Atom+Function  
  ----- ------------  ---------------      ----- ------------  ---------------
    62     -0.553413  2 C  pz               190      0.553413  6 C  pz         
    17      0.522744  1 C  pz               145     -0.522744  5 C  pz         
    13      0.262687  1 C  pz               141     -0.262687  5 C  pz         
    58     -0.228609  2 C  pz               186      0.228609  6 C  pz         
     9      0.189503  1 C  pz               137     -0.189503  5 C  pz         
 
 Vector   18  Occ=0.000000D+00  E=-1.005066D-03  Symmetry=ag
              MO Center= -1.2D-15,  1.2D-15,  1.6D-15, r^2= 2.0D+01
   Bfn.  Coefficient  Atom+Function         Bfn.  Coefficient  Atom+Function  
  ----- ------------  ---------------      ----- ------------  ---------------
   113     -2.210397  4 H  s                241     -2.210397  8 H  s          
    14      2.073175  1 C  s                142      2.073175  5 C  s          
    59      2.033660  2 C  s                 94     -2.028501  3 H  s          
   187      2.033660  6 C  s                222     -2.028501  7 H  s          
    60      0.932217  2 C  px               188     -0.932217  6 C  px         
 
 Vector   19  Occ=0.000000D+00  E= 2.403633D-03  Symmetry=bu
              MO Center=  2.5D-14,  9.7D-14, -2.1D-14, r^2= 1.6D+01
   Bfn.  Coefficient  Atom+Function         Bfn.  Coefficient  Atom+Function  
  ----- ------------  ---------------      ----- ------------  ---------------
   113      1.667486  4 H  s                241     -1.667486  8 H  s          
    59     -0.883694  2 C  s                187      0.883694  6 C  s          
    61     -0.852778  2 C  py               189     -0.852778  6 C  py         
    14     -0.523514  1 C  s                142      0.523514  5 C  s          
    16      0.457826  1 C  py               144      0.457826  5 C  py         
 
 Vector   20  Occ=0.000000D+00  E= 4.281350D-03  Symmetry=bu
              MO Center= -1.7D-14, -8.4D-14,  1.2D-14, r^2= 1.7D+01
   Bfn.  Coefficient  Atom+Function         Bfn.  Coefficient  Atom+Function  
  ----- ------------  ---------------      ----- ------------  ---------------
   113      1.565742  4 H  s                241     -1.565742  8 H  s          
    94     -0.759027  3 H  s                222      0.759027  7 H  s          
    60     -0.751540  2 C  px               188     -0.751540  6 C  px         
    59     -0.625232  2 C  s                187      0.625232  6 C  s          
    16     -0.452182  1 C  py               144     -0.452182  5 C  py         
 
 Vector   21  Occ=0.000000D+00  E= 2.107056D-02  Symmetry=ag
              MO Center=  4.3D-12,  2.3D-12, -2.9D-15, r^2= 2.1D+01
   Bfn.  Coefficient  Atom+Function         Bfn.  Coefficient  Atom+Function  
  ----- ------------  ---------------      ----- ------------  ---------------
   113      2.028321  4 H  s                241      2.028321  8 H  s          
    94     -1.835055  3 H  s                222     -1.835055  7 H  s          
    59     -0.632171  2 C  s                187     -0.632171  6 C  s          
    61     -0.607377  2 C  py               189      0.607377  6 C  py         
    16     -0.519981  1 C  py               144      0.519981  5 C  py         
 
 Vector   22  Occ=0.000000D+00  E= 2.370143D-02  Symmetry=bu
              MO Center= -4.5D-12, -2.2D-12, -4.7D-15, r^2= 1.9D+01
   Bfn.  Coefficient  Atom+Function         Bfn.  Coefficient  Atom+Function  
  ----- ------------  ---------------      ----- ------------  ---------------
    94      4.395076  3 H  s                222     -4.395076  7 H  s          
    14     -3.087169  1 C  s                142      3.087169  5 C  s          
    59     -2.519341  2 C  s                187      2.519341  6 C  s          
   113      1.812221  4 H  s                241     -1.812221  8 H  s          
    16      1.707544  1 C  py               144      1.707544  5 C  py         
 
 Vector   23  Occ=0.000000D+00  E= 5.132244D-02  Symmetry=au
              MO Center=  4.6D-16,  2.3D-16, -1.1D-14, r^2= 1.4D+01
   Bfn.  Coefficient  Atom+Function         Bfn.  Coefficient  Atom+Function  
  ----- ------------  ---------------      ----- ------------  ---------------
    62      0.516732  2 C  pz               190      0.516732  6 C  pz         
    17      0.271358  1 C  pz               145      0.271358  5 C  pz         
    13     -0.250337  1 C  pz               141     -0.250337  5 C  pz         
    58     -0.156015  2 C  pz               186     -0.156015  6 C  pz         
    79     -0.075024  2 C  dyz              207      0.075024  6 C  dyz        
 
 Vector   24  Occ=0.000000D+00  E= 5.605953D-02  Symmetry=bu
              MO Center= -4.8D-14, -1.7D-13, -5.4D-15, r^2= 1.6D+01
   Bfn.  Coefficient  Atom+Function         Bfn.  Coefficient  Atom+Function  
  ----- ------------  ---------------      ----- ------------  ---------------
    16      1.557150  1 C  py               144      1.557150  5 C  py         
    94      1.285535  3 H  s                222     -1.285535  7 H  s          
   113     -1.101360  4 H  s                241      1.101360  8 H  s          
   112     -0.762436  4 H  s                240      0.762436  8 H  s          
    15      0.584918  1 C  px               143      0.584918  5 C  px         
 
 Vector   25  Occ=0.000000D+00  E= 6.838439D-02  Symmetry=ag
              MO Center= -2.3D-14,  1.1D-13,  3.3D-17, r^2= 1.7D+01
   Bfn.  Coefficient  Atom+Function         Bfn.  Coefficient  Atom+Function  
  ----- ------------  ---------------      ----- ------------  ---------------
    60      0.954445  2 C  px               188     -0.954445  6 C  px         
    15     -0.271322  1 C  px               143      0.271322  5 C  px         
    93      0.235873  3 H  s                221      0.235873  7 H  s          
    12      0.197911  1 C  py               140     -0.197911  5 C  py         
    16     -0.196183  1 C  py               144      0.196183  5 C  py         
 
 Vector   26  Occ=0.000000D+00  E= 8.162910D-02  Symmetry=bg
              MO Center= -3.1D-16, -6.7D-15,  1.4D-14, r^2= 1.7D+01
   Bfn.  Coefficient  Atom+Function         Bfn.  Coefficient  Atom+Function  
  ----- ------------  ---------------      ----- ------------  ---------------
    62      0.750379  2 C  pz               190     -0.750379  6 C  pz         
    58     -0.344735  2 C  pz               186      0.344735  6 C  pz         
    17      0.209832  1 C  pz               145     -0.209832  5 C  pz         
    50     -0.097609  2 C  pz               178      0.097609  6 C  pz         
    13     -0.088020  1 C  pz               141      0.088020  5 C  pz         
 
 Vector   27  Occ=0.000000D+00  E= 9.741328D-02  Symmetry=ag
              MO Center=  1.4D-13, -5.5D-14, -2.2D-16, r^2= 1.2D+01
   Bfn.  Coefficient  Atom+Function         Bfn.  Coefficient  Atom+Function  
  ----- ------------  ---------------      ----- ------------  ---------------
    94      1.878035  3 H  s                222      1.878035  7 H  s          
    14     -1.369602  1 C  s                142     -1.369602  5 C  s          
    61      1.151681  2 C  py               189     -1.151681  6 C  py         
    93      0.921870  3 H  s                221      0.921870  7 H  s          
   113     -0.858767  4 H  s                241     -0.858767  8 H  s          
 
 Vector   28  Occ=0.000000D+00  E= 1.078325D-01  Symmetry=bu
              MO Center= -7.3D-13, -1.0D-12, -2.5D-14, r^2= 1.9D+01
   Bfn.  Coefficient  Atom+Function         Bfn.  Coefficient  Atom+Function  
  ----- ------------  ---------------      ----- ------------  ---------------
    94      2.918359  3 H  s                222     -2.918359  7 H  s          
   113     -2.164534  4 H  s                241      2.164534  8 H  s          
    16      1.375223  1 C  py               144      1.375223  5 C  py         
    60      1.366918  2 C  px               188      1.366918  6 C  px         
   112      1.259122  4 H  s                240     -1.259122  8 H  s          
 
 Vector   29  Occ=0.000000D+00  E= 1.157885D-01  Symmetry=ag
              MO Center=  2.0D-12,  1.0D-11, -3.3D-15, r^2= 3.0D+01
   Bfn.  Coefficient  Atom+Function         Bfn.  Coefficient  Atom+Function  
  ----- ------------  ---------------      ----- ------------  ---------------
    59      7.506974  2 C  s                187      7.506974  6 C  s          
   113     -7.264660  4 H  s                241     -7.264660  8 H  s          
    14      6.876282  1 C  s                142      6.876282  5 C  s          
    61      4.488739  2 C  py               189     -4.488739  6 C  py         
    94     -4.113827  3 H  s                222     -4.113827  7 H  s          
 
 Vector   30  Occ=0.000000D+00  E= 1.181386D-01  Symmetry=bg
              MO Center= -5.4D-15,  2.7D-14, -7.5D-13, r^2= 1.5D+01
   Bfn.  Coefficient  Atom+Function         Bfn.  Coefficient  Atom+Function  
  ----- ------------  ---------------      ----- ------------  ---------------
    17      2.116545  1 C  pz               145     -2.116545  5 C  pz         
    62     -1.543592  2 C  pz               190      1.543592  6 C  pz         
    13     -0.321640  1 C  pz               141      0.321640  5 C  pz         
    79      0.189203  2 C  dyz              207      0.189203  6 C  dyz        
    34      0.175169  1 C  dyz              162      0.175169  5 C  dyz        
 
 Vector   31  Occ=0.000000D+00  E= 1.186599D-01  Symmetry=bu
              MO Center= -2.4D-12, -4.8D-12,  7.7D-13, r^2= 2.0D+01
   Bfn.  Coefficient  Atom+Function         Bfn.  Coefficient  Atom+Function  
  ----- ------------  ---------------      ----- ------------  ---------------
    94     -3.539373  3 H  s                222      3.539373  7 H  s          
    14      3.451278  1 C  s                142     -3.451278  5 C  s          
    59      2.871499  2 C  s                187     -2.871499  6 C  s          
    16     -2.669377  1 C  py               144     -2.669377  5 C  py         
    61      2.247432  2 C  py               189      2.247432  6 C  py         
 
 Vector   32  Occ=0.000000D+00  E= 1.227734D-01  Symmetry=ag
              MO Center=  1.0D-12, -1.2D-12, -1.2D-15, r^2= 1.4D+01
   Bfn.  Coefficient  Atom+Function         Bfn.  Coefficient  Atom+Function  
  ----- ------------  ---------------      ----- ------------  ---------------
   112      2.992081  4 H  s                240      2.992081  8 H  s          
    94      2.479293  3 H  s                222      2.479293  7 H  s          
    59     -2.436221  2 C  s                187     -2.436221  6 C  s          
    93     -2.157686  3 H  s                221     -2.157686  7 H  s          
    14     -1.726832  1 C  s                142     -1.726832  5 C  s          
 
 Vector   33  Occ=0.000000D+00  E= 1.318086D-01  Symmetry=bu
              MO Center= -7.3D-13, -3.7D-12,  4.2D-15, r^2= 2.6D+01
   Bfn.  Coefficient  Atom+Function         Bfn.  Coefficient  Atom+Function  
  ----- ------------  ---------------      ----- ------------  ---------------
    59      8.066850  2 C  s                187     -8.066850  6 C  s          
    14      7.392734  1 C  s                142     -7.392734  5 C  s          
   113     -6.966588  4 H  s                241      6.966588  8 H  s          
    94     -6.068864  3 H  s                222      6.068864  7 H  s          
    61      4.165472  2 C  py               189      4.165472  6 C  py         
 
 Vector   34  Occ=0.000000D+00  E= 1.343471D-01  Symmetry=au
              MO Center=  7.5D-15, -1.9D-14, -8.1D-14, r^2= 1.7D+01
   Bfn.  Coefficient  Atom+Function         Bfn.  Coefficient  Atom+Function  
  ----- ------------  ---------------      ----- ------------  ---------------
    62     -1.725792  2 C  pz               190     -1.725792  6 C  pz         
    17      1.584645  1 C  pz               145      1.584645  5 C  pz         
    58      0.302575  2 C  pz               186      0.302575  6 C  pz         
    13     -0.257880  1 C  pz               141     -0.257880  5 C  pz         
    77      0.174751  2 C  dxz              205     -0.174751  6 C  dxz        
 
 Vector   35  Occ=0.000000D+00  E= 1.421403D-01  Symmetry=bu
              MO Center=  2.6D-12, -9.6D-13, -1.0D-14, r^2= 1.7D+01
   Bfn.  Coefficient  Atom+Function         Bfn.  Coefficient  Atom+Function  
  ----- ------------  ---------------      ----- ------------  ---------------
    94      4.883726  3 H  s                222     -4.883726  7 H  s          
    15      3.576925  1 C  px               143      3.576925  5 C  px         
    16     -1.386234  1 C  py               144     -1.386234  5 C  py         
    60     -1.011720  2 C  px               188     -1.011720  6 C  px         
    14     -0.831894  1 C  s                142      0.831894  5 C  s          
 
 Vector   36  Occ=0.000000D+00  E= 1.447263D-01  Symmetry=ag
              MO Center= -1.4D-12, -5.8D-13,  7.2D-14, r^2= 1.6D+01
   Bfn.  Coefficient  Atom+Function         Bfn.  Coefficient  Atom+Function  
  ----- ------------  ---------------      ----- ------------  ---------------
    94      4.567384  3 H  s                222      4.567384  7 H  s          
    16      3.030863  1 C  py               144     -3.030863  5 C  py         
   113     -2.810063  4 H  s                241     -2.810063  8 H  s          
    14     -2.739037  1 C  s                142     -2.739037  5 C  s          
    93      2.083341  3 H  s                221      2.083341  7 H  s          
 
 Vector   37  Occ=0.000000D+00  E= 1.593538D-01  Symmetry=ag
              MO Center= -7.6D-13,  1.0D-12,  1.2D-14, r^2= 2.0D+01
   Bfn.  Coefficient  Atom+Function         Bfn.  Coefficient  Atom+Function  
  ----- ------------  ---------------      ----- ------------  ---------------
    94      5.526456  3 H  s                222      5.526456  7 H  s          
    14     -3.640640  1 C  s                142     -3.640640  5 C  s          
    15      3.094797  1 C  px               143     -3.094797  5 C  px         
    61      2.066179  2 C  py               189     -2.066179  6 C  py         
    59     -1.671270  2 C  s                187     -1.671270  6 C  s          
 
 Vector   38  Occ=0.000000D+00  E= 1.725570D-01  Symmetry=bu
              MO Center=  4.6D-13,  1.0D-12,  9.4D-15, r^2= 1.7D+01
   Bfn.  Coefficient  Atom+Function         Bfn.  Coefficient  Atom+Function  
  ----- ------------  ---------------      ----- ------------  ---------------
    94      9.474551  3 H  s                222     -9.474551  7 H  s          
    14     -7.872206  1 C  s                142      7.872206  5 C  s          
    16      7.386549  1 C  py               144      7.386549  5 C  py         
    93      4.469825  3 H  s                221     -4.469825  7 H  s          
    59     -3.416800  2 C  s                187      3.416800  6 C  s          
 
 Vector   39  Occ=0.000000D+00  E= 2.308414D-01  Symmetry=bu
              MO Center= -1.5D-14, -9.8D-14, -5.8D-16, r^2= 1.7D+01
   Bfn.  Coefficient  Atom+Function         Bfn.  Coefficient  Atom+Function  
  ----- ------------  ---------------      ----- ------------  ---------------
    59      6.140526  2 C  s                187     -6.140526  6 C  s          
    14      5.990140  1 C  s                142     -5.990140  5 C  s          
    93     -5.287068  3 H  s                221      5.287068  7 H  s          
   113     -4.892825  4 H  s                241      4.892825  8 H  s          
    61      4.754167  2 C  py               189      4.754167  6 C  py         
 
 Vector   40  Occ=0.000000D+00  E= 2.369384D-01  Symmetry=ag
              MO Center=  9.0D-14, -2.8D-13, -1.1D-16, r^2= 1.8D+01
   Bfn.  Coefficient  Atom+Function         Bfn.  Coefficient  Atom+Function  
  ----- ------------  ---------------      ----- ------------  ---------------
    14      6.485343  1 C  s                142      6.485343  5 C  s          
    59      6.278764  2 C  s                187      6.278764  6 C  s          
    61      5.530368  2 C  py               189     -5.530368  6 C  py         
    16     -5.334821  1 C  py               144      5.334821  5 C  py         
   112     -5.179815  4 H  s                240     -5.179815  8 H  s          
 
 Vector   41  Occ=0.000000D+00  E= 2.747269D-01  Symmetry=ag
              MO Center= -7.8D-15, -2.1D-14,  1.2D-16, r^2= 8.2D+00
   Bfn.  Coefficient  Atom+Function         Bfn.  Coefficient  Atom+Function  
  ----- ------------  ---------------      ----- ------------  ---------------
    93     -4.212111  3 H  s                221     -4.212111  7 H  s          
    14      3.953290  1 C  s                142      3.953290  5 C  s          
    94     -2.866358  3 H  s                222     -2.866358  7 H  s          
    59      2.407991  2 C  s                187      2.407991  6 C  s          
    15     -1.796534  1 C  px               143      1.796534  5 C  px         
 
 Vector   42  Occ=0.000000D+00  E= 2.788723D-01  Symmetry=au
              MO Center=  1.1D-15,  5.9D-14,  2.7D-15, r^2= 7.5D+00
   Bfn.  Coefficient  Atom+Function         Bfn.  Coefficient  Atom+Function  
  ----- ------------  ---------------      ----- ------------  ---------------
    32      0.726450  1 C  dxz              160     -0.726450  5 C  dxz        
    77      0.534957  2 C  dxz              205     -0.534957  6 C  dxz        
    17     -0.303548  1 C  pz               145     -0.303548  5 C  pz         
    34     -0.295747  1 C  dyz              162      0.295747  5 C  dyz        
   103      0.254637  3 H  pz               231      0.254637  7 H  pz         
 
 Vector   43  Occ=0.000000D+00  E= 3.128523D-01  Symmetry=bu
              MO Center=  5.6D-14, -1.1D-13,  5.7D-16, r^2= 1.8D+01
   Bfn.  Coefficient  Atom+Function         Bfn.  Coefficient  Atom+Function  
  ----- ------------  ---------------      ----- ------------  ---------------
   112      9.045851  4 H  s                240     -9.045851  8 H  s          
    59     -6.457979  2 C  s                187      6.457979  6 C  s          
   113      5.028553  4 H  s                241     -5.028553  8 H  s          
    61     -4.276346  2 C  py               189     -4.276346  6 C  py         
    60     -3.742542  2 C  px               188     -3.742542  6 C  px         
 
 Vector   44  Occ=0.000000D+00  E= 3.179423D-01  Symmetry=bg
              MO Center= -4.0D-15, -3.6D-14,  8.7D-15, r^2= 8.9D+00
   Bfn.  Coefficient  Atom+Function         Bfn.  Coefficient  Atom+Function  
  ----- ------------  ---------------      ----- ------------  ---------------
    17      0.650223  1 C  pz               145     -0.650223  5 C  pz         
    79     -0.625712  2 C  dyz              207     -0.625712  6 C  dyz        
   103     -0.458867  3 H  pz               231      0.458867  7 H  pz         
    34     -0.439443  1 C  dyz              162     -0.439443  5 C  dyz        
    77      0.432574  2 C  dxz              205      0.432574  6 C  dxz        
 
 Vector   45  Occ=0.000000D+00  E= 3.206903D-01  Symmetry=ag
              MO Center= -1.5D-12,  3.8D-14, -1.9D-15, r^2= 1.5D+01
   Bfn.  Coefficient  Atom+Function         Bfn.  Coefficient  Atom+Function  
  ----- ------------  ---------------      ----- ------------  ---------------
   112      6.542750  4 H  s                240      6.542750  8 H  s          
    93     -3.836904  3 H  s                221     -3.836904  7 H  s          
    59     -3.457991  2 C  s                187     -3.457991  6 C  s          
    57     -2.322826  2 C  py               185      2.322826  6 C  py         
    12     -2.202815  1 C  py               140      2.202815  5 C  py         
 
 Vector   46  Occ=0.000000D+00  E= 3.430417D-01  Symmetry=bu
              MO Center= -2.0D-13, -1.4D-13, -2.5D-14, r^2= 9.4D+00
   Bfn.  Coefficient  Atom+Function         Bfn.  Coefficient  Atom+Function  
  ----- ------------  ---------------      ----- ------------  ---------------
   112      2.143689  4 H  s                240     -2.143689  8 H  s          
    94     -1.815434  3 H  s                222      1.815434  7 H  s          
    93     -1.635385  3 H  s                221      1.635385  7 H  s          
    15     -1.525557  1 C  px               143     -1.525557  5 C  px         
    12     -0.781374  1 C  py               140     -0.781374  5 C  py         
 
 Vector   47  Occ=0.000000D+00  E= 3.560456D-01  Symmetry=bg
              MO Center= -1.4D-15, -1.7D-14,  2.7D-14, r^2= 9.8D+00
   Bfn.  Coefficient  Atom+Function         Bfn.  Coefficient  Atom+Function  
  ----- ------------  ---------------      ----- ------------  ---------------
    77      0.534839  2 C  dxz              205      0.534839  6 C  dxz        
   122      0.508549  4 H  pz               250     -0.508549  8 H  pz         
   103      0.392024  3 H  pz               231     -0.392024  7 H  pz         
    79     -0.356244  2 C  dyz              207     -0.356244  6 C  dyz        
    34     -0.268860  1 C  dyz              162     -0.268860  5 C  dyz        
 
 Vector   48  Occ=0.000000D+00  E= 3.563121D-01  Symmetry=ag
              MO Center=  6.8D-12, -9.9D-12,  1.6D-14, r^2= 1.6D+01
   Bfn.  Coefficient  Atom+Function         Bfn.  Coefficient  Atom+Function  
  ----- ------------  ---------------      ----- ------------  ---------------
    14      8.499008  1 C  s                142      8.499008  5 C  s          
    59      7.988732  2 C  s                187      7.988732  6 C  s          
    93     -6.697215  3 H  s                221     -6.697215  7 H  s          
   112     -6.233454  4 H  s                240     -6.233454  8 H  s          
    94     -5.352285  3 H  s                113     -5.352103  4 H  s          
 
 Vector   49  Occ=0.000000D+00  E= 3.621168D-01  Symmetry=bu
              MO Center= -4.6D-12,  8.7D-12, -9.0D-15, r^2= 1.2D+01
   Bfn.  Coefficient  Atom+Function         Bfn.  Coefficient  Atom+Function  
  ----- ------------  ---------------      ----- ------------  ---------------
    93    -10.816274  3 H  s                221     10.816274  7 H  s          
    14     10.066849  1 C  s                142    -10.066849  5 C  s          
    94     -7.477125  3 H  s                222      7.477125  7 H  s          
    16     -7.086589  1 C  py               144     -7.086589  5 C  py         
    59      6.738262  2 C  s                187     -6.738262  6 C  s          
 
 Vector   50  Occ=0.000000D+00  E= 3.647125D-01  Symmetry=au
              MO Center= -4.7D-15, -2.0D-14, -1.0D-14, r^2= 1.0D+01
   Bfn.  Coefficient  Atom+Function         Bfn.  Coefficient  Atom+Function  
  ----- ------------  ---------------      ----- ------------  ---------------
   122      0.537466  4 H  pz               250      0.537466  8 H  pz         
    32     -0.385624  1 C  dxz              160      0.385624  5 C  dxz        
    34     -0.371634  1 C  dyz              162      0.371634  5 C  dyz        
    62     -0.347268  2 C  pz               190     -0.347268  6 C  pz         
   103      0.315982  3 H  pz               231      0.315982  7 H  pz         
 
 Vector   51  Occ=0.000000D+00  E= 3.915858D-01  Symmetry=ag
              MO Center=  9.1D-14,  4.2D-13, -3.9D-15, r^2= 9.4D+00
   Bfn.  Coefficient  Atom+Function         Bfn.  Coefficient  Atom+Function  
  ----- ------------  ---------------      ----- ------------  ---------------
    94      3.326704  3 H  s                222      3.326704  7 H  s          
    14     -2.876000  1 C  s                142     -2.876000  5 C  s          
    93      1.873505  3 H  s                221      1.873505  7 H  s          
    16      1.243394  1 C  py               144     -1.243394  5 C  py         
    59     -1.140533  2 C  s                187     -1.140533  6 C  s          
 
 Vector   52  Occ=0.000000D+00  E= 4.053328D-01  Symmetry=bu
              MO Center= -7.6D-15,  1.6D-13, -3.7D-16, r^2= 1.2D+01
   Bfn.  Coefficient  Atom+Function         Bfn.  Coefficient  Atom+Function  
  ----- ------------  ---------------      ----- ------------  ---------------
    16      1.934504  1 C  py               144      1.934504  5 C  py         
    14     -1.081469  1 C  s                142      1.081469  5 C  s          
    60      1.054613  2 C  px               188      1.054613  6 C  px         
   112      0.862155  4 H  s                240     -0.862155  8 H  s          
    59     -0.702471  2 C  s                187      0.702471  6 C  s          
 
 Vector   53  Occ=0.000000D+00  E= 4.439530D-01  Symmetry=au
              MO Center= -1.6D-15, -6.3D-15, -1.9D-14, r^2= 9.2D+00
   Bfn.  Coefficient  Atom+Function         Bfn.  Coefficient  Atom+Function  
  ----- ------------  ---------------      ----- ------------  ---------------
    79      1.069551  2 C  dyz              207     -1.069551  6 C  dyz        
    77     -0.908554  2 C  dxz              205      0.908554  6 C  dxz        
    34     -0.879260  1 C  dyz              162      0.879260  5 C  dyz        
    32      0.850665  1 C  dxz              160     -0.850665  5 C  dxz        
   122     -0.470484  4 H  pz               250     -0.470484  8 H  pz         
 
 Vector   54  Occ=0.000000D+00  E= 4.552071D-01  Symmetry=ag
              MO Center= -5.3D-14,  8.5D-14,  1.3D-14, r^2= 1.2D+01
   Bfn.  Coefficient  Atom+Function         Bfn.  Coefficient  Atom+Function  
  ----- ------------  ---------------      ----- ------------  ---------------
    93      3.919216  3 H  s                221      3.919216  7 H  s          
   113      1.987287  4 H  s                241      1.987287  8 H  s          
    30     -1.718065  1 C  dxx              158     -1.718065  5 C  dxx        
    59     -1.634506  2 C  s                 60     -1.634574  2 C  px         
   187     -1.634506  6 C  s                188      1.634574  6 C  px         
 
 Vector   55  Occ=0.000000D+00  E= 4.800138D-01  Symmetry=ag
              MO Center= -2.3D-13, -3.7D-12,  3.0D-15, r^2= 1.2D+01
   Bfn.  Coefficient  Atom+Function         Bfn.  Coefficient  Atom+Function  
  ----- ------------  ---------------      ----- ------------  ---------------
    94      4.375657  3 H  s                222      4.375657  7 H  s          
    14     -3.644126  1 C  s                142     -3.644126  5 C  s          
    15      2.658995  1 C  px               143     -2.658995  5 C  px         
    16      2.340917  1 C  py               144     -2.340917  5 C  py         
   112      1.974889  4 H  s                240      1.974889  8 H  s          
 
 Vector   56  Occ=0.000000D+00  E= 4.864553D-01  Symmetry=bu
              MO Center= -4.0D-13,  3.7D-12, -9.1D-14, r^2= 1.4D+01
   Bfn.  Coefficient  Atom+Function         Bfn.  Coefficient  Atom+Function  
  ----- ------------  ---------------      ----- ------------  ---------------
    94      4.537206  3 H  s                222     -4.537206  7 H  s          
    16      3.673984  1 C  py               144      3.673984  5 C  py         
    14     -3.015571  1 C  s                142      3.015571  5 C  s          
   113     -2.369521  4 H  s                241      2.369521  8 H  s          
    15      1.717836  1 C  px               143      1.717836  5 C  px         
 
 Vector   57  Occ=0.000000D+00  E= 4.874294D-01  Symmetry=bg
              MO Center=  9.8D-15,  1.3D-14,  9.0D-14, r^2= 1.1D+01
   Bfn.  Coefficient  Atom+Function         Bfn.  Coefficient  Atom+Function  
  ----- ------------  ---------------      ----- ------------  ---------------
   103      1.045609  3 H  pz               231     -1.045609  7 H  pz         
    34      0.960553  1 C  dyz              162      0.960553  5 C  dyz        
    62      0.849570  2 C  pz               190     -0.849570  6 C  pz         
   122     -0.797410  4 H  pz               250      0.797410  8 H  pz         
    17     -0.745016  1 C  pz               145      0.745016  5 C  pz         
 
 Vector   58  Occ=0.000000D+00  E= 4.924285D-01  Symmetry=bu
              MO Center=  5.7D-14, -2.9D-13, -2.8D-15, r^2= 1.3D+01
   Bfn.  Coefficient  Atom+Function         Bfn.  Coefficient  Atom+Function  
  ----- ------------  ---------------      ----- ------------  ---------------
   112      3.564200  4 H  s                240     -3.564200  8 H  s          
    78     -1.688700  2 C  dyy              206      1.688700  6 C  dyy        
    75     -1.627295  2 C  dxx              203      1.627295  6 C  dxx        
    31     -1.497954  1 C  dxy               60     -1.494899  2 C  px         
   159      1.497954  5 C  dxy              188     -1.494899  6 C  px         
 
 Vector   59  Occ=0.000000D+00  E= 5.013088D-01  Symmetry=au
              MO Center=  1.1D-14, -6.6D-14, -3.2D-15, r^2= 1.0D+01
   Bfn.  Coefficient  Atom+Function         Bfn.  Coefficient  Atom+Function  
  ----- ------------  ---------------      ----- ------------  ---------------
    77      1.225368  2 C  dxz              205     -1.225368  6 C  dxz        
   122     -1.208399  4 H  pz               250     -1.208399  8 H  pz         
    34      0.968734  1 C  dyz              162     -0.968734  5 C  dyz        
   103      0.837265  3 H  pz               231      0.837265  7 H  pz         
    17     -0.806778  1 C  pz               145     -0.806778  5 C  pz         
 
 Vector   60  Occ=0.000000D+00  E= 5.107645D-01  Symmetry=au
              MO Center=  2.2D-14, -3.4D-13,  4.9D-15, r^2= 9.1D+00
   Bfn.  Coefficient  Atom+Function         Bfn.  Coefficient  Atom+Function  
  ----- ------------  ---------------      ----- ------------  ---------------
    13      1.243535  1 C  pz               141      1.243535  5 C  pz         
   103     -0.920654  3 H  pz               231     -0.920654  7 H  pz         
    58      0.874796  2 C  pz               186      0.874796  6 C  pz         
    77      0.723901  2 C  dxz              205     -0.723901  6 C  dxz        
    79      0.553245  2 C  dyz              207     -0.553245  6 C  dyz        
 
 Vector   61  Occ=0.000000D+00  E= 5.110236D-01  Symmetry=bu
              MO Center= -1.3D-14,  1.4D-13, -4.9D-16, r^2= 1.1D+01
   Bfn.  Coefficient  Atom+Function         Bfn.  Coefficient  Atom+Function  
  ----- ------------  ---------------      ----- ------------  ---------------
    94      3.975331  3 H  s                222     -3.975331  7 H  s          
    93      3.254057  3 H  s                221     -3.254057  7 H  s          
   112      3.083745  4 H  s                240     -3.083745  8 H  s          
    15      2.865912  1 C  px               143      2.865912  5 C  px         
    14     -2.420456  1 C  s                142      2.420456  5 C  s          
 
 Vector   62  Occ=0.000000D+00  E= 5.129129D-01  Symmetry=bg
              MO Center= -2.9D-14,  4.0D-13,  3.8D-15, r^2= 1.0D+01
   Bfn.  Coefficient  Atom+Function         Bfn.  Coefficient  Atom+Function  
  ----- ------------  ---------------      ----- ------------  ---------------
    58      1.307156  2 C  pz               186     -1.307156  6 C  pz         
    13      1.019359  1 C  pz               141     -1.019359  5 C  pz         
    32     -0.996509  1 C  dxz              160     -0.996509  5 C  dxz        
   122     -0.848810  4 H  pz               250      0.848810  8 H  pz         
    17     -0.833451  1 C  pz               145      0.833451  5 C  pz         
 
 Vector   63  Occ=0.000000D+00  E= 5.237807D-01  Symmetry=ag
              MO Center= -1.1D-13, -4.7D-14,  3.6D-15, r^2= 1.7D+01
   Bfn.  Coefficient  Atom+Function         Bfn.  Coefficient  Atom+Function  
  ----- ------------  ---------------      ----- ------------  ---------------
   112      6.642770  4 H  s                240      6.642770  8 H  s          
    93      6.112265  3 H  s                221      6.112265  7 H  s          
    16      3.945784  1 C  py               144     -3.945784  5 C  py         
    14     -3.703757  1 C  s                142     -3.703757  5 C  s          
    78     -3.284991  2 C  dyy              206     -3.284991  6 C  dyy        
 
 Vector   64  Occ=0.000000D+00  E= 5.341580D-01  Symmetry=ag
              MO Center= -7.7D-13,  1.9D-12, -3.2D-15, r^2= 1.0D+01
   Bfn.  Coefficient  Atom+Function         Bfn.  Coefficient  Atom+Function  
  ----- ------------  ---------------      ----- ------------  ---------------
   112      2.390243  4 H  s                240      2.390243  8 H  s          
    15      1.860299  1 C  px                94      1.859505  3 H  s          
   143     -1.860299  5 C  px               222      1.859505  7 H  s          
    14     -1.818992  1 C  s                142     -1.818992  5 C  s          
    59     -1.652390  2 C  s                187     -1.652390  6 C  s          
 
 Vector   65  Occ=0.000000D+00  E= 5.403866D-01  Symmetry=bu
              MO Center=  1.1D-12, -1.5D-12, -2.0D-15, r^2= 1.2D+01
   Bfn.  Coefficient  Atom+Function         Bfn.  Coefficient  Atom+Function  
  ----- ------------  ---------------      ----- ------------  ---------------
    93      7.096200  3 H  s                221     -7.096200  7 H  s          
   112      5.916115  4 H  s                240     -5.916115  8 H  s          
    59     -4.086748  2 C  s                187      4.086748  6 C  s          
    14     -3.721707  1 C  s                142      3.721707  5 C  s          
    61     -3.543766  2 C  py               189     -3.543766  6 C  py         
 
 Vector   66  Occ=0.000000D+00  E= 5.497594D-01  Symmetry=bg
              MO Center= -7.0D-15,  1.8D-14,  1.6D-16, r^2= 8.3D+00
   Bfn.  Coefficient  Atom+Function         Bfn.  Coefficient  Atom+Function  
  ----- ------------  ---------------      ----- ------------  ---------------
    32      1.799705  1 C  dxz              160      1.799705  5 C  dxz        
    79      1.648632  2 C  dyz              207      1.648632  6 C  dyz        
   122     -0.630205  4 H  pz               250      0.630205  8 H  pz         
   103      0.608233  3 H  pz               231     -0.608233  7 H  pz         
    34     -0.389864  1 C  dyz              162     -0.389864  5 C  dyz        
 
 Vector   67  Occ=0.000000D+00  E= 5.949566D-01  Symmetry=ag
              MO Center= -4.9D-14, -1.6D-13,  6.5D-16, r^2= 1.0D+01
   Bfn.  Coefficient  Atom+Function         Bfn.  Coefficient  Atom+Function  
  ----- ------------  ---------------      ----- ------------  ---------------
    31      2.978681  1 C  dxy              159      2.978681  5 C  dxy        
    76      2.928468  2 C  dxy              204      2.928468  6 C  dxy        
    30      2.324847  1 C  dxx              158      2.324847  5 C  dxx        
    75      2.217442  2 C  dxx              203      2.217442  6 C  dxx        
    14     -2.198073  1 C  s                142     -2.198073  5 C  s          
 
 Vector   68  Occ=0.000000D+00  E= 6.090854D-01  Symmetry=ag
              MO Center=  5.2D-13,  2.5D-12,  4.2D-15, r^2= 1.2D+01
   Bfn.  Coefficient  Atom+Function         Bfn.  Coefficient  Atom+Function  
  ----- ------------  ---------------      ----- ------------  ---------------
    93      5.015952  3 H  s                221      5.015952  7 H  s          
   112      4.218000  4 H  s                240      4.218000  8 H  s          
    61     -3.608986  2 C  py               189      3.608986  6 C  py         
    59     -3.558457  2 C  s                187     -3.558457  6 C  s          
   113      3.463255  4 H  s                241      3.463255  8 H  s          
 
 Vector   69  Occ=0.000000D+00  E= 6.272095D-01  Symmetry=bu
              MO Center= -4.1D-14, -5.7D-13,  2.0D-15, r^2= 1.1D+01
   Bfn.  Coefficient  Atom+Function         Bfn.  Coefficient  Atom+Function  
  ----- ------------  ---------------      ----- ------------  ---------------
    78      1.649342  2 C  dyy              206     -1.649342  6 C  dyy        
   120      1.524282  4 H  px               248      1.524282  8 H  px         
    75     -1.110679  2 C  dxx              203      1.110679  6 C  dxx        
    57      0.847602  2 C  py               121     -0.849260  4 H  py         
   185      0.847602  6 C  py               249     -0.849260  8 H  py         
 
 Vector   70  Occ=0.000000D+00  E= 6.383501D-01  Symmetry=bu
              MO Center= -3.4D-13, -1.7D-12, -4.0D-16, r^2= 1.0D+01
   Bfn.  Coefficient  Atom+Function         Bfn.  Coefficient  Atom+Function  
  ----- ------------  ---------------      ----- ------------  ---------------
    59      3.449796  2 C  s                187     -3.449796  6 C  s          
    55      3.424647  2 C  s                183     -3.424647  6 C  s          
    14      3.200118  1 C  s                142     -3.200118  5 C  s          
    31     -3.092915  1 C  dxy              159      3.092915  5 C  dxy        
    94     -2.903287  3 H  s                222      2.903287  7 H  s          
 
 Vector   71  Occ=0.000000D+00  E= 6.637632D-01  Symmetry=au
              MO Center=  2.4D-15, -1.3D-14, -3.1D-15, r^2= 9.3D+00
   Bfn.  Coefficient  Atom+Function         Bfn.  Coefficient  Atom+Function  
  ----- ------------  ---------------      ----- ------------  ---------------
    79      3.100089  2 C  dyz              207     -3.100089  6 C  dyz        
    34      3.010308  1 C  dyz              162     -3.010308  5 C  dyz        
    32      2.622063  1 C  dxz              160     -2.622063  5 C  dxz        
    77      2.282991  2 C  dxz              205     -2.282991  6 C  dxz        
   103      1.654250  3 H  pz               231      1.654250  7 H  pz         
 
 Vector   72  Occ=0.000000D+00  E= 6.709732D-01  Symmetry=bg
              MO Center=  6.8D-16,  9.7D-15, -5.2D-16, r^2= 9.0D+00
   Bfn.  Coefficient  Atom+Function         Bfn.  Coefficient  Atom+Function  
  ----- ------------  ---------------      ----- ------------  ---------------
    34      2.816457  1 C  dyz              162      2.816457  5 C  dyz        
    79      2.794174  2 C  dyz              207      2.794174  6 C  dyz        
    77      2.683806  2 C  dxz              205      2.683806  6 C  dxz        
    32      1.921076  1 C  dxz              160      1.921076  5 C  dxz        
   122     -1.581668  4 H  pz               250      1.581668  8 H  pz         
 
 Vector   73  Occ=0.000000D+00  E= 6.802559D-01  Symmetry=ag
              MO Center= -1.3D-13, -1.5D-12,  6.6D-16, r^2= 1.2D+01
   Bfn.  Coefficient  Atom+Function         Bfn.  Coefficient  Atom+Function  
  ----- ------------  ---------------      ----- ------------  ---------------
    93      6.701907  3 H  s                221      6.701907  7 H  s          
   112     -5.508155  4 H  s                240     -5.508155  8 H  s          
    57      3.571400  2 C  py               185     -3.571400  6 C  py         
    12      3.364817  1 C  py               140     -3.364817  5 C  py         
    56      3.038843  2 C  px               184     -3.038843  6 C  px         
 
 Vector   74  Occ=0.000000D+00  E= 7.051183D-01  Symmetry=bu
              MO Center=  9.6D-13,  2.8D-12, -1.8D-17, r^2= 1.3D+01
   Bfn.  Coefficient  Atom+Function         Bfn.  Coefficient  Atom+Function  
  ----- ------------  ---------------      ----- ------------  ---------------
    93      7.078006  3 H  s                221     -7.078006  7 H  s          
   112     -6.959890  4 H  s                240      6.959890  8 H  s          
    12      3.753492  1 C  py               140      3.753492  5 C  py         
    56      3.385989  2 C  px               184      3.385989  6 C  px         
    57      3.260984  2 C  py               185      3.260984  6 C  py         
 
 Vector   75  Occ=0.000000D+00  E= 7.277214D-01  Symmetry=ag
              MO Center= -7.6D-13,  3.8D-14,  2.1D-16, r^2= 1.0D+01
   Bfn.  Coefficient  Atom+Function         Bfn.  Coefficient  Atom+Function  
  ----- ------------  ---------------      ----- ------------  ---------------
   112      3.366011  4 H  s                240      3.366011  8 H  s          
    93      2.560336  3 H  s                221      2.560336  7 H  s          
    59     -2.375374  2 C  s                187     -2.375374  6 C  s          
    14     -2.320137  1 C  s                142     -2.320137  5 C  s          
   120     -1.983641  4 H  px               248      1.983641  8 H  px         
 
 Vector   76  Occ=0.000000D+00  E= 7.963357D-01  Symmetry=au
              MO Center=  5.1D-14, -2.4D-13, -3.2D-15, r^2= 9.5D+00
   Bfn.  Coefficient  Atom+Function         Bfn.  Coefficient  Atom+Function  
  ----- ------------  ---------------      ----- ------------  ---------------
    79      2.315502  2 C  dyz              207     -2.315502  6 C  dyz        
    34     -2.085752  1 C  dyz              162      2.085752  5 C  dyz        
    77      1.973570  2 C  dxz              205     -1.973570  6 C  dxz        
   122     -1.846221  4 H  pz               250     -1.846221  8 H  pz         
   103     -1.760495  3 H  pz               231     -1.760495  7 H  pz         
 
 Vector   77  Occ=0.000000D+00  E= 8.097304D-01  Symmetry=bu
              MO Center=  4.0D-13,  1.6D-12,  7.5D-16, r^2= 6.9D+00
   Bfn.  Coefficient  Atom+Function         Bfn.  Coefficient  Atom+Function  
  ----- ------------  ---------------      ----- ------------  ---------------
    93      4.305428  3 H  s                221     -4.305428  7 H  s          
    10     -3.886687  1 C  s                138      3.886687  5 C  s          
    12      3.425711  1 C  py               140      3.425711  5 C  py         
    55     -2.827963  2 C  s                183      2.827963  6 C  s          
    33      2.813745  1 C  dyy               78      2.802701  2 C  dyy        
 
 Vector   78  Occ=0.000000D+00  E= 8.228656D-01  Symmetry=ag
              MO Center=  6.9D-14, -1.9D-12,  2.0D-17, r^2= 8.4D+00
   Bfn.  Coefficient  Atom+Function         Bfn.  Coefficient  Atom+Function  
  ----- ------------  ---------------      ----- ------------  ---------------
    12      3.095190  1 C  py               140     -3.095190  5 C  py         
    93      2.860210  3 H  s                221      2.860210  7 H  s          
   101      2.627487  3 H  px               229     -2.627487  7 H  px         
    10     -1.917040  1 C  s                138     -1.917040  5 C  s          
    14     -1.768761  1 C  s                 78      1.771020  2 C  dyy        
 
 Vector   79  Occ=0.000000D+00  E= 8.260044D-01  Symmetry=bg
              MO Center= -2.2D-14,  2.7D-13, -4.2D-16, r^2= 9.0D+00
   Bfn.  Coefficient  Atom+Function         Bfn.  Coefficient  Atom+Function  
  ----- ------------  ---------------      ----- ------------  ---------------
    79     -2.420566  2 C  dyz              207     -2.420566  6 C  dyz        
    34      2.222631  1 C  dyz              162      2.222631  5 C  dyz        
    77     -1.806696  2 C  dxz              103      1.809255  3 H  pz         
   205     -1.806696  6 C  dxz              231     -1.809255  7 H  pz         
   122      1.735035  4 H  pz               250     -1.735035  8 H  pz         
 
 Vector   80  Occ=0.000000D+00  E= 8.704829D-01  Symmetry=bu
              MO Center= -1.6D-13, -2.6D-13, -3.1D-16, r^2= 1.2D+01
   Bfn.  Coefficient  Atom+Function         Bfn.  Coefficient  Atom+Function  
  ----- ------------  ---------------      ----- ------------  ---------------
    55      8.396111  2 C  s                183     -8.396111  6 C  s          
   112     -8.166304  4 H  s                240      8.166304  8 H  s          
    93     -8.072697  3 H  s                221      8.072697  7 H  s          
    10      7.660266  1 C  s                138     -7.660266  5 C  s          
    59      5.573069  2 C  s                187     -5.573069  6 C  s          
 
 Vector   81  Occ=0.000000D+00  E= 8.844279D-01  Symmetry=bu
              MO Center=  3.4D-14,  1.5D-13, -5.4D-16, r^2= 9.1D+00
   Bfn.  Coefficient  Atom+Function         Bfn.  Coefficient  Atom+Function  
  ----- ------------  ---------------      ----- ------------  ---------------
    11      5.617326  1 C  px               139      5.617326  5 C  px         
    76      3.973182  2 C  dxy              204     -3.973182  6 C  dxy        
    57      3.877980  2 C  py               185      3.877980  6 C  py         
    75      3.443163  2 C  dxx              203     -3.443163  6 C  dxx        
    78     -2.389617  2 C  dyy              206      2.389617  6 C  dyy        
 
 Vector   82  Occ=0.000000D+00  E= 9.085403D-01  Symmetry=ag
              MO Center= -4.5D-13, -8.5D-13, -4.8D-16, r^2= 1.3D+01
   Bfn.  Coefficient  Atom+Function         Bfn.  Coefficient  Atom+Function  
  ----- ------------  ---------------      ----- ------------  ---------------
   112      9.944476  4 H  s                240      9.944476  8 H  s          
    93      7.966799  3 H  s                221      7.966799  7 H  s          
    55     -7.517546  2 C  s                183     -7.517546  6 C  s          
    14     -6.459500  1 C  s                142     -6.459500  5 C  s          
    10     -6.363757  1 C  s                138     -6.363757  5 C  s          
 
 Vector   83  Occ=0.000000D+00  E= 9.251068D-01  Symmetry=bu
              MO Center= -6.3D-13,  1.6D-12,  1.0D-15, r^2= 8.3D+00
   Bfn.  Coefficient  Atom+Function         Bfn.  Coefficient  Atom+Function  
  ----- ------------  ---------------      ----- ------------  ---------------
    93      7.595207  3 H  s                221     -7.595207  7 H  s          
    12      4.258066  1 C  py                14     -4.241619  1 C  s          
   140      4.258066  5 C  py               142      4.241619  5 C  s          
    31     -4.095568  1 C  dxy              159      4.095568  5 C  dxy        
    10     -3.746614  1 C  s                138      3.746614  5 C  s          
 
 Vector   84  Occ=0.000000D+00  E= 9.639397D-01  Symmetry=ag
              MO Center=  6.2D-13, -2.4D-12,  4.7D-16, r^2= 9.8D+00
   Bfn.  Coefficient  Atom+Function         Bfn.  Coefficient  Atom+Function  
  ----- ------------  ---------------      ----- ------------  ---------------
    12     -6.903914  1 C  py               140      6.903914  5 C  py         
    10      6.402087  1 C  s                 93     -6.409528  3 H  s          
   138      6.402087  5 C  s                221     -6.409528  7 H  s          
    14      4.287311  1 C  s                142      4.287311  5 C  s          
    31      4.193744  1 C  dxy              159      4.193744  5 C  dxy        
 
 Vector   85  Occ=0.000000D+00  E= 1.033153D+00  Symmetry=bg
              MO Center= -2.0D-13,  2.7D-12, -6.9D-15, r^2= 1.0D+01
   Bfn.  Coefficient  Atom+Function         Bfn.  Coefficient  Atom+Function  
  ----- ------------  ---------------      ----- ------------  ---------------
    34     14.841740  1 C  dyz              162     14.841740  5 C  dyz        
    58    -14.700543  2 C  pz               186     14.700543  6 C  pz         
    13     14.529972  1 C  pz                79     14.462659  2 C  dyz        
   141    -14.529972  5 C  pz               207     14.462659  6 C  dyz        
    32     12.116940  1 C  dxz              160     12.116940  5 C  dxz        
 
 Vector   86  Occ=0.000000D+00  E= 1.043761D+00  Symmetry=bu
              MO Center=  1.1D-13, -3.8D-13,  4.5D-15, r^2= 1.1D+01
   Bfn.  Coefficient  Atom+Function         Bfn.  Coefficient  Atom+Function  
  ----- ------------  ---------------      ----- ------------  ---------------
    33     11.228400  1 C  dyy              161    -11.228400  5 C  dyy        
    12     10.413104  1 C  py                78     10.415126  2 C  dyy        
   140     10.413104  5 C  py               206    -10.415126  6 C  dyy        
    56     10.194329  2 C  px               184     10.194329  6 C  px         
    57     -9.466237  2 C  py               185     -9.466237  6 C  py         
 
 Vector   87  Occ=0.000000D+00  E= 1.071091D+00  Symmetry=au
              MO Center=  2.1D-13, -3.0D-12,  1.6D-16, r^2= 1.0D+01
   Bfn.  Coefficient  Atom+Function         Bfn.  Coefficient  Atom+Function  
  ----- ------------  ---------------      ----- ------------  ---------------
    13     14.553490  1 C  pz               141     14.553490  5 C  pz         
    58    -14.443175  2 C  pz                79     14.452597  2 C  dyz        
   186    -14.443175  6 C  pz               207    -14.452597  6 C  dyz        
    34     14.268187  1 C  dyz              162    -14.268187  5 C  dyz        
    77     11.886915  2 C  dxz              205    -11.886915  6 C  dxz        
 
 Vector   88  Occ=0.000000D+00  E= 1.071899D+00  Symmetry=ag
              MO Center= -8.8D-14,  1.2D-13,  2.6D-16, r^2= 9.8D+00
   Bfn.  Coefficient  Atom+Function         Bfn.  Coefficient  Atom+Function  
  ----- ------------  ---------------      ----- ------------  ---------------
    56    -10.463924  2 C  px               184     10.463924  6 C  px         
    11     10.257325  1 C  px               139    -10.257325  5 C  px         
    30      8.401682  1 C  dxx              158      8.401682  5 C  dxx        
    10     -8.156343  1 C  s                 55     -8.172282  2 C  s          
[...]
 
 Vector  232  Occ=0.000000D+00  E= 9.161406D+00  Symmetry=bg
              MO Center= -2.1D-12,  3.1D-11,  6.9D-15, r^2= 6.5D+00
   Bfn.  Coefficient  Atom+Function         Bfn.  Coefficient  Atom+Function  
  ----- ------------  ---------------      ----- ------------  ---------------
     9      7.025738  1 C  pz               137     -7.025738  5 C  pz         
    54     -6.752247  2 C  pz               182      6.752247  6 C  pz         
    38     -3.587681  1 C  fxxz              43     -3.581315  1 C  fyyz       
    45     -3.583247  1 C  fzzz             166      3.587681  5 C  fxxz       
   171      3.581315  5 C  fyyz             173      3.583247  5 C  fzzz       
 
 Vector  233  Occ=0.000000D+00  E= 9.216543D+00  Symmetry=bu
              MO Center=  1.4D-13, -6.5D-12, -7.8D-15, r^2= 6.4D+00
   Bfn.  Coefficient  Atom+Function         Bfn.  Coefficient  Atom+Function  
  ----- ------------  ---------------      ----- ------------  ---------------
    51     -5.961127  2 C  s                179      5.961127  6 C  s          
     6      5.732332  1 C  s                134     -5.732332  5 C  s          
     7     -3.355856  1 C  px               135     -3.355856  5 C  px         
    53     -2.431191  2 C  py               181     -2.431191  6 C  py         
    74      2.386030  2 C  dzz              202     -2.386030  6 C  dzz        
 
 Vector  234  Occ=0.000000D+00  E= 9.223449D+00  Symmetry=ag
              MO Center= -3.2D-13,  7.5D-13,  3.2D-18, r^2= 5.8D+00
   Bfn.  Coefficient  Atom+Function         Bfn.  Coefficient  Atom+Function  
  ----- ------------  ---------------      ----- ------------  ---------------
     7      6.684371  1 C  px               135     -6.684371  5 C  px         
    52     -5.105289  2 C  px               180      5.105289  6 C  px         
     8     -4.897296  1 C  py               136      4.897296  5 C  py         
    53      3.582403  2 C  py               181     -3.582403  6 C  py         
    36     -3.357316  1 C  fxxx              41     -3.372932  1 C  fxzz       
 
 Vector  235  Occ=0.000000D+00  E= 9.269729D+00  Symmetry=ag
              MO Center= -2.1D-13,  6.1D-12, -9.6D-19, r^2= 7.1D+00
   Bfn.  Coefficient  Atom+Function         Bfn.  Coefficient  Atom+Function  
  ----- ------------  ---------------      ----- ------------  ---------------
    51      6.482838  2 C  s                179      6.482838  6 C  s          
     6     -4.485458  1 C  s                134     -4.485458  5 C  s          
    53      4.007892  2 C  py               181     -4.007892  6 C  py         
    74     -2.620021  2 C  dzz              202     -2.620021  6 C  dzz        
    52      2.428658  2 C  px               180     -2.428658  6 C  px         
 
 Vector  236  Occ=0.000000D+00  E= 9.340613D+00  Symmetry=bu
              MO Center= -4.9D-14,  2.6D-13,  7.0D-17, r^2= 5.8D+00
   Bfn.  Coefficient  Atom+Function         Bfn.  Coefficient  Atom+Function  
  ----- ------------  ---------------      ----- ------------  ---------------
     7      7.327119  1 C  px               135      7.327119  5 C  px         
    52     -5.962469  2 C  px               180     -5.962469  6 C  px         
    51     -3.814109  2 C  s                179      3.814109  6 C  s          
    41     -3.766401  1 C  fxzz             169     -3.766401  5 C  fxzz       
    36     -3.716605  1 C  fxxx             164     -3.716605  5 C  fxxx       
 
 Vector  237  Occ=0.000000D+00  E= 9.434270D+00  Symmetry=ag
              MO Center=  3.2D-13, -6.9D-13,  3.5D-19, r^2= 5.3D+00
   Bfn.  Coefficient  Atom+Function         Bfn.  Coefficient  Atom+Function  
  ----- ------------  ---------------      ----- ------------  ---------------
     6      6.850449  1 C  s                134      6.850449  5 C  s          
     8     -5.560522  1 C  py               136      5.560522  5 C  py         
    51      5.104611  2 C  s                179      5.104611  6 C  s          
    53      3.682073  2 C  py               181     -3.682073  6 C  py         
    52      3.201755  2 C  px               180     -3.201755  6 C  px         
 
 Vector  238  Occ=0.000000D+00  E= 9.483693D+00  Symmetry=bu
              MO Center= -9.6D-14, -9.0D-14, -1.1D-17, r^2= 5.6D+00
   Bfn.  Coefficient  Atom+Function         Bfn.  Coefficient  Atom+Function  
  ----- ------------  ---------------      ----- ------------  ---------------
     8      6.811311  1 C  py               136      6.811311  5 C  py         
    53     -5.681966  2 C  py               181     -5.681966  6 C  py         
     6     -5.427422  1 C  s                134      5.427422  5 C  s          
    51     -4.782271  2 C  s                179      4.782271  6 C  s          
    44     -3.510900  1 C  fyzz             172     -3.510900  5 C  fyzz       
 
 Vector  239  Occ=0.000000D+00  E= 1.019852D+01  Symmetry=ag
              MO Center=  1.1D-13,  1.5D-13,  3.7D-19, r^2= 7.3D+00
   Bfn.  Coefficient  Atom+Function         Bfn.  Coefficient  Atom+Function  
  ----- ------------  ---------------      ----- ------------  ---------------
     6      5.906560  1 C  s                134      5.906560  5 C  s          
    51     -5.529122  2 C  s                179     -5.529122  6 C  s          
    84      4.040347  2 C  fxyy             212     -4.040347  6 C  fxyy       
    39      3.800107  1 C  fxyy             167     -3.800107  5 C  fxyy       
    82      3.514220  2 C  fxxy             210     -3.514220  6 C  fxxy       
 
 Vector  240  Occ=0.000000D+00  E= 1.022010D+01  Symmetry=bu
              MO Center= -6.4D-14,  2.1D-13, -6.4D-17, r^2= 6.7D+00
   Bfn.  Coefficient  Atom+Function         Bfn.  Coefficient  Atom+Function  
  ----- ------------  ---------------      ----- ------------  ---------------
     6      6.853608  1 C  s                134     -6.853608  5 C  s          
    51     -6.195310  2 C  s                179      6.195310  6 C  s          
    84      3.719217  2 C  fxyy             212      3.719217  6 C  fxyy       
    39      3.423320  1 C  fxyy             167      3.423320  5 C  fxyy       
    37      3.115138  1 C  fxxy             165      3.115138  5 C  fxxy       
 
 Vector  241  Occ=0.000000D+00  E= 1.033480D+01  Symmetry=bu
              MO Center=  7.3D-14,  7.1D-14, -7.7D-17, r^2= 5.5D+00
   Bfn.  Coefficient  Atom+Function         Bfn.  Coefficient  Atom+Function  
  ----- ------------  ---------------      ----- ------------  ---------------
    53      5.576447  2 C  py               181      5.576447  6 C  py         
     8      4.803368  1 C  py               136      4.803368  5 C  py         
    52      4.541431  2 C  px               180      4.541431  6 C  px         
     7      4.078038  1 C  px               135      4.078038  5 C  px         
    25      3.532336  1 C  dxy              153     -3.532336  5 C  dxy        
 
 Vector  242  Occ=0.000000D+00  E= 1.033653D+01  Symmetry=ag
              MO Center= -1.5D-13, -2.0D-13, -4.7D-19, r^2= 7.6D+00
   Bfn.  Coefficient  Atom+Function         Bfn.  Coefficient  Atom+Function  
  ----- ------------  ---------------      ----- ------------  ---------------
     8      6.884754  1 C  py               136     -6.884754  5 C  py         
     7      5.657379  1 C  px               135     -5.657379  5 C  px         
    70     -3.907118  2 C  dxy              198     -3.907118  6 C  dxy        
     6      3.343684  1 C  s                134      3.343684  5 C  s          
    42     -2.890610  1 C  fyyy             170      2.890610  5 C  fyyy       
 
 Vector  243  Occ=0.000000D+00  E= 1.037271D+01  Symmetry=ag
              MO Center=  1.3D-12, -4.2D-12, -6.4D-20, r^2= 4.7D+00
   Bfn.  Coefficient  Atom+Function         Bfn.  Coefficient  Atom+Function  
  ----- ------------  ---------------      ----- ------------  ---------------
    53      7.196334  2 C  py               181     -7.196334  6 C  py         
    52      5.667800  2 C  px               180     -5.667800  6 C  px         
    25      3.902582  1 C  dxy              153      3.902582  5 C  dxy        
    51     -3.735473  2 C  s                179     -3.735473  6 C  s          
    31      3.272060  1 C  dxy              159      3.272060  5 C  dxy        
 
 Vector  244  Occ=0.000000D+00  E= 1.039900D+01  Symmetry=bu
              MO Center= -1.1D-12,  4.4D-12,  1.2D-18, r^2= 7.3D+00
   Bfn.  Coefficient  Atom+Function         Bfn.  Coefficient  Atom+Function  
  ----- ------------  ---------------      ----- ------------  ---------------
     8      5.108120  1 C  py               136      5.108120  5 C  py         
    53     -4.349898  2 C  py               181     -4.349898  6 C  py         
     7      4.017693  1 C  px               135      4.017693  5 C  px         
    31     -3.694490  1 C  dxy               76     -3.688385  2 C  dxy        
   159      3.694490  5 C  dxy              204      3.688385  6 C  dxy        
 
 Vector  245  Occ=0.000000D+00  E= 1.228804D+01  Symmetry=ag
              MO Center= -9.2D-13,  1.7D-11,  4.8D-18, r^2= 6.8D+00
   Bfn.  Coefficient  Atom+Function         Bfn.  Coefficient  Atom+Function  
  ----- ------------  ---------------      ----- ------------  ---------------
    70     -9.972373  2 C  dxy              198     -9.972373  6 C  dxy        
    25      9.919174  1 C  dxy              153      9.919174  5 C  dxy        
    72     -6.384308  2 C  dyy              200     -6.384308  6 C  dyy        
    27      6.333406  1 C  dyy              155      6.333406  5 C  dyy        
    69     -4.389867  2 C  dxx              197     -4.389867  6 C  dxx        
 
 Vector  246  Occ=0.000000D+00  E= 1.233903D+01  Symmetry=bu
              MO Center=  9.3D-13, -1.7D-11,  3.4D-18, r^2= 7.0D+00
   Bfn.  Coefficient  Atom+Function         Bfn.  Coefficient  Atom+Function  
  ----- ------------  ---------------      ----- ------------  ---------------
    70    -10.029391  2 C  dxy              198     10.029391  6 C  dxy        
    25      9.743183  1 C  dxy              153     -9.743183  5 C  dxy        
    27      6.457016  1 C  dyy              155     -6.457016  5 C  dyy        
    72     -6.421520  2 C  dyy              200      6.421520  6 C  dyy        
    24      4.497859  1 C  dxx              152     -4.497859  5 C  dxx        
 
 Vector  247  Occ=0.000000D+00  E= 1.301352D+01  Symmetry=bu
              MO Center=  3.9D-14, -1.4D-14, -5.0D-20, r^2= 6.8D+00
   Bfn.  Coefficient  Atom+Function         Bfn.  Coefficient  Atom+Function  
  ----- ------------  ---------------      ----- ------------  ---------------
    39      6.870331  1 C  fxyy             167      6.870331  5 C  fxyy       
    84     -6.732772  2 C  fxyy             212     -6.732772  6 C  fxyy       
    51     -6.274410  2 C  s                179      6.274410  6 C  s          
     6     -6.169822  1 C  s                134      6.169822  5 C  s          
    37      5.983475  1 C  fxxy              82     -5.999985  2 C  fxxy       
 
 Vector  248  Occ=0.000000D+00  E= 1.301959D+01  Symmetry=ag
              MO Center=  2.4D-14, -5.9D-14,  4.1D-19, r^2= 6.9D+00
   Bfn.  Coefficient  Atom+Function         Bfn.  Coefficient  Atom+Function  
  ----- ------------  ---------------      ----- ------------  ---------------
    39     -6.874878  1 C  fxyy             167      6.874878  5 C  fxyy       
    84      6.797219  2 C  fxyy             212     -6.797219  6 C  fxyy       
    51      6.319108  2 C  s                179      6.319108  6 C  s          
     6      6.265469  1 C  s                134      6.265469  5 C  s          
    37     -5.893303  1 C  fxxy              82      5.913285  2 C  fxxy       
 
 Vector  249  Occ=0.000000D+00  E= 2.897831D+01  Symmetry=ag
              MO Center=  2.8D-16, -3.4D-15,  1.0D-19, r^2= 4.9D+00
   Bfn.  Coefficient  Atom+Function         Bfn.  Coefficient  Atom+Function  
  ----- ------------  ---------------      ----- ------------  ---------------
     6      2.512473  1 C  s                 51     -2.515227  2 C  s          
   134      2.512473  5 C  s                179     -2.515227  6 C  s          
     1     -1.005462  1 C  s                 46      1.005332  2 C  s          
   129     -1.005462  5 C  s                174      1.005332  6 C  s          
    25      0.884498  1 C  dxy              153      0.884498  5 C  dxy        
 
 Vector  250  Occ=0.000000D+00  E= 2.897883D+01  Symmetry=bu
              MO Center=  2.4D-14,  4.9D-14, -6.3D-19, r^2= 5.0D+00
   Bfn.  Coefficient  Atom+Function         Bfn.  Coefficient  Atom+Function  
  ----- ------------  ---------------      ----- ------------  ---------------
     6      2.514705  1 C  s                 51     -2.515208  2 C  s          
   134     -2.514705  5 C  s                179      2.515208  6 C  s          
     1     -1.003481  1 C  s                 46      1.006776  2 C  s          
   129      1.003481  5 C  s                174     -1.006776  6 C  s          
    25      0.874926  1 C  dxy               70     -0.875584  2 C  dxy        
 
 Vector  251  Occ=0.000000D+00  E= 2.931878D+01  Symmetry=ag
              MO Center= -2.5D-14, -3.2D-14,  1.0D-19, r^2= 5.0D+00
   Bfn.  Coefficient  Atom+Function         Bfn.  Coefficient  Atom+Function  
  ----- ------------  ---------------      ----- ------------  ---------------
     6      1.619859  1 C  s                 51      1.616949  2 C  s          
   134      1.619859  5 C  s                179      1.616949  6 C  s          
     1     -1.011180  1 C  s                 46     -1.011013  2 C  s          
   129     -1.011180  5 C  s                174     -1.011013  6 C  s          
     2      0.831460  1 C  s                 47      0.831017  2 C  s          
 
 Vector  252  Occ=0.000000D+00  E= 2.931972D+01  Symmetry=bu
              MO Center=  1.0D-15,  3.0D-16,  1.1D-20, r^2= 4.9D+00
   Bfn.  Coefficient  Atom+Function         Bfn.  Coefficient  Atom+Function  
  ----- ------------  ---------------      ----- ------------  ---------------
     6      1.633748  1 C  s                134     -1.633748  5 C  s          
    51      1.609504  2 C  s                179     -1.609504  6 C  s          
     1     -1.012205  1 C  s                 46     -1.009740  2 C  s          
   129      1.012205  5 C  s                174      1.009740  6 C  s          
     2      0.829639  1 C  s                 47      0.831143  2 C  s          
 

 center of mass
 --------------
 x =  -0.00000000 y =   0.00000000 z =   0.00000000

 moments of inertia (a.u.)
 ------------------
         893.164860396321           0.000000000000           0.000000000000
           0.000000000000          44.551784949502           0.000000000000
           0.000000000000           0.000000000000         937.716645345824
 
     Multipole analysis of the density
     ---------------------------------
 
     L   x y z        total         alpha         beta         nuclear
     -   - - -        -----         -----         ----         -------
     0   0 0 0     -0.000000    -14.000000    -14.000000     28.000000
 
     1   1 0 0      0.000000      0.000000      0.000000     -0.000000
     1   0 1 0      0.000000      0.000000      0.000000     -0.000000
     1   0 0 1      0.000000      0.000000      0.000000      0.000000
 
     2   2 0 0    -16.357095    -23.331535    -23.331535     30.305974
     2   1 1 0      4.585066     -1.601307     -1.601307      7.787680
     2   1 0 1     -0.000000     -0.000000     -0.000000      0.000000
     2   0 2 0    -14.543821   -252.336055   -252.336055    490.128288
     2   0 1 1     -0.000000     -0.000000     -0.000000      0.000000
     2   0 0 2    -20.371300    -10.185650    -10.185650      0.000000
 

------------------------------------------------------------
EAF file 0: "./C2H2-C2H2.aoints.00" size=2097152 bytes
------------------------------------------------------------
               write      read    awrite     aread      wait
               -----      ----    ------     -----      ----
     calls:       98        11         0       107       107
   data(b): 5.14e+07  5.77e+06  0.00e+00  5.61e+07
   time(s): 0.00e+00  0.00e+00  0.00e+00  0.00e+00  0.00e+00
rate(mb/s): 0.00e+00  0.00e+00
------------------------------------------------------------


 Parallel integral file used    2544 records with       0 large values


 Task  times  cpu:        5.7s     wall:        7.4s
 
 
                                NWChem Input Module
                                -------------------
 
 
 Summary of allocated global arrays
-----------------------------------
  No active global arrays



                         GA Statistics for process    0
                         ------------------------------

       create   destroy   get      put      acc     scatter   gather  read&inc
calls:  244      244     5048     2191     1890        0        0      303     
number of processes/call 2.07e+00 1.51e+00 1.87e+00 0.00e+00 0.00e+00
bytes total:             1.45e+08 1.84e+07 7.27e+07 0.00e+00 0.00e+00 2.42e+03
bytes remote:            1.12e+08 9.58e+06 5.40e+07 0.00e+00 0.00e+00 0.00e+00
Max memory consumed for GA by this process: 3186976 bytes
 
MA_summarize_allocated_blocks: starting scan ...
MA_summarize_allocated_blocks: scan completed: 0 heap blocks, 0 stack blocks
MA usage statistics:

	allocation statistics:
					      heap	     stack
					      ----	     -----
	current number of blocks	         0	         0
	maximum number of blocks	        22	        57
	current total bytes		         0	         0
	maximum total bytes		  89896448	  32294024
	maximum total K-bytes		     89897	     32295
	maximum total M-bytes		        90	        33
 
 
                                     CITATION
                                     --------
                Please cite the following reference when publishing
                           results obtained with NWChem:
 
                 M. Valiev, E.J. Bylaska, N. Govind, K. Kowalski,
              T.P. Straatsma, H.J.J. van Dam, D. Wang, J. Nieplocha,
                        E. Apra, T.L. Windus, W.A. de Jong
                 "NWChem: a comprehensive and scalable open-source
                  solution for large scale molecular simulations"
                      Comput. Phys. Commun. 181, 1477 (2010)
                           doi:10.1016/j.cpc.2010.04.018
 
                                      AUTHORS
                                      -------
          E. Apra, E. J. Bylaska, W. A. de Jong, N. Govind, K. Kowalski,
       T. P. Straatsma, M. Valiev, H. J. J. van Dam, D. Wang, T. L. Windus,
        J. Hammond, J. Autschbach, K. Bhaskaran-Nair, J. Brabec, K. Lopata,
    S. A. Fischer, S. Krishnamoorthy, M. Jacquelin, W. Ma, M. Klemm, O. Villa,
      Y. Chen, V. Anisimov, F. Aquino, S. Hirata, M. T. Hackler, V. Konjkov,
            D. Mejia-Rodriguez, T. Risthaus, M. Malagoli, A. Marenich,
   A. Otero-de-la-Roza, J. Mullin, P. Nichols, R. Peverati, J. Pittner, Y. Zhao,
        P.-D. Fan, A. Fonari, M. J. Williamson, R. J. Harrison, J. R. Rehr,
      M. Dupuis, D. Silverstein, D. M. A. Smith, J. Nieplocha, V. Tipparaju,
    M. Krishnan, B. E. Van Kuiken, A. Vazquez-Mayagoitia, L. Jensen, M. Swart,
      Q. Wu, T. Van Voorhis, A. A. Auer, M. Nooijen, L. D. Crosby, E. Brown,
      G. Cisneros, G. I. Fann, H. Fruchtl, J. Garza, K. Hirao, R. A. Kendall,
      J. A. Nichols, K. Tsemekhman, K. Wolinski, J. Anchell, D. E. Bernholdt,
      P. Borowski, T. Clark, D. Clerc, H. Dachsel, M. J. O. Deegan, K. Dyall,
    D. Elwood, E. Glendening, M. Gutowski, A. C. Hess, J. Jaffe, B. G. Johnson,
     J. Ju, R. Kobayashi, R. Kutteh, Z. Lin, R. Littlefield, X. Long, B. Meng,
      T. Nakajima, S. Niu, L. Pollack, M. Rosing, K. Glaesemann, G. Sandrone,
      M. Stave, H. Taylor, G. Thomas, J. H. van Lenthe, A. T. Wong, Z. Zhang.

 Total times  cpu:        5.9s     wall:        7.8s
