 argument  1 = /storage/home/rabeet/work/nwc/hb6/nwtpss/C2H4.nw
  NWChem w/ OpenMP: maximum threads =  1
                                         
                                         
 
 
              Northwest Computational Chemistry Package (NWChem) 6.8
              ------------------------------------------------------
 
 
                    Environmental Molecular Sciences Laboratory
                       Pacific Northwest National Laboratory
                                Richland, WA 99352
 
                              Copyright (c) 1994-2018
                       Pacific Northwest National Laboratory
                            Battelle Memorial Institute
 
             NWChem is an open-source computational chemistry package
                        distributed under the terms of the
                      Educational Community License (ECL) 2.0
             A copy of the license is included with this distribution
                              in the LICENSE.TXT file
 
                                  ACKNOWLEDGMENT
                                  --------------

            This software and its documentation were developed at the
            EMSL at Pacific Northwest National Laboratory, a multiprogram
            national laboratory, operated for the U.S. Department of Energy
            by Battelle under Contract Number DE-AC05-76RL01830. Support
            for this work was provided by the Department of Energy Office
            of Biological and Environmental Research, Office of Basic
            Energy Sciences, and the Office of Advanced Scientific Computing.


           Job information
           ---------------

    hostname        = r8n4.niserhpc.org
    program         = /home/rabeet/nwchem-6.8/bin/LINUX64/nwchem
    date            = Sun Oct 27 08:45:03 2019

    compiled        = Fri_Jun_28_18:24:12_2019
    source          = /home/rabeet/nwchem-6.8
    nwchem branch   = Development
    nwchem revision = N/A
    ga revision     = 5.6.5
    use scalapack   = T
    input           = /storage/home/rabeet/work/nwc/hb6/nwtpss/C2H4.nw
    prefix          = C2H4.
    data base       = ./C2H4.db
    status          = startup
    nproc           =       16
    time left       =     -1s



           Memory information
           ------------------

    heap     =   13107196 doubles =    100.0 Mbytes
    stack    =   13107201 doubles =    100.0 Mbytes
    global   =   26214400 doubles =    200.0 Mbytes (distinct from heap & stack)
    total    =   52428797 doubles =    400.0 Mbytes
    verify   = yes
    hardfail = no 


           Directory information
           ---------------------
 
  0 permanent = .
  0 scratch   = .
 
 
 
 
                                NWChem Input Module
                                -------------------
 
 

 Scaling coordinates for geometry "geometry" by  1.889725989
 (inverse scale =  0.529177249)

 D2H symmetry detected

          ------
          auto-z
          ------
  no constraints, skipping   0.000000000000000E+000
  no constraints, skipping   0.000000000000000E+000
 
 
                             Geometry "geometry" -> ""
                             -------------------------
 
 Output coordinates in angstroms (scale by  1.889725989 to convert to a.u.)
 
  No.       Tag          Charge          X              Y              Z
 ---- ---------------- ---------- -------------- -------------- --------------
    1 C                    6.0000     0.00000000     0.66808000     0.00000000
    2 C                    6.0000     0.00000000    -0.66808000     0.00000000
    3 H                    1.0000     0.92453000     1.23492000     0.00000000
    4 H                    1.0000    -0.92453000     1.23492000     0.00000000
    5 H                    1.0000     0.92453000    -1.23492000     0.00000000
    6 H                    1.0000    -0.92453000    -1.23492000     0.00000000
 
      Atomic Mass 
      ----------- 
 
      C                 12.000000
      H                  1.007825
 

 Effective nuclear repulsion energy (a.u.)      33.3154346570

            Nuclear Dipole moment (a.u.) 
            ----------------------------
        X                 Y               Z
 ---------------- ---------------- ----------------
     0.0000000000     0.0000000000     0.0000000000
 
      Symmetry information
      --------------------
 
 Group name             D2h       
 Group number             26
 Group order               8
 No. of unique centers     2
 
      Symmetry unique atoms
 
     1    3
 


                                Z-matrix (autoz)
                                -------- 

 Units are Angstrom for bonds and degrees for angles
 
      Type          Name      I     J     K     L     M      Value
      ----------- --------  ----- ----- ----- ----- ----- ----------
    1 Stretch                  1     2                       1.33616
    2 Stretch                  1     3                       1.08446
    3 Stretch                  1     4                       1.08446
    4 Stretch                  2     5                       1.08446
    5 Stretch                  2     6                       1.08446
    6 Bend                     1     2     5               121.51294
    7 Bend                     1     2     6               121.51294
    8 Bend                     2     1     3               121.51294
    9 Bend                     2     1     4               121.51294
   10 Bend                     3     1     4               116.97412
   11 Bend                     5     2     6               116.97412
   12 Torsion                  3     1     2     5           0.00000
   13 Torsion                  3     1     2     6         180.00000
   14 Torsion                  4     1     2     5         180.00000
   15 Torsion                  4     1     2     6           0.00000
 
 
            XYZ format geometry
            -------------------
     6
 geometry
 C                     0.00000000     0.66808000     0.00000000
 C                     0.00000000    -0.66808000     0.00000000
 H                     0.92453000     1.23492000     0.00000000
 H                    -0.92453000     1.23492000     0.00000000
 H                     0.92453000    -1.23492000     0.00000000
 H                    -0.92453000    -1.23492000     0.00000000
 
 ==============================================================================
                                internuclear distances
 ------------------------------------------------------------------------------
       center one      |      center two      | atomic units |  angstroms
 ------------------------------------------------------------------------------
    2 C                |   1 C                |     2.52498  |     1.33616
    3 H                |   1 C                |     2.04934  |     1.08446
    4 H                |   1 C                |     2.04934  |     1.08446
    5 H                |   2 C                |     2.04934  |     1.08446
    6 H                |   2 C                |     2.04934  |     1.08446
 ------------------------------------------------------------------------------
                         number of included internuclear distances:          5
 ==============================================================================



 ==============================================================================
                                 internuclear angles
 ------------------------------------------------------------------------------
        center 1       |       center 2       |       center 3       |  degrees
 ------------------------------------------------------------------------------
    2 C                |   1 C                |   3 H                |   121.51
    2 C                |   1 C                |   4 H                |   121.51
    3 H                |   1 C                |   4 H                |   116.97
    1 C                |   2 C                |   5 H                |   121.51
    1 C                |   2 C                |   6 H                |   121.51
    5 H                |   2 C                |   6 H                |   116.97
 ------------------------------------------------------------------------------
                            number of included internuclear angles:          6
 ==============================================================================





 Summary of "ao basis" -> "" (cartesian)
 ------------------------------------------------------------------------------
       Tag                 Description            Shells   Functions and Types
 ---------------- ------------------------------  ------  ---------------------
 *                     6-311++G(3df,3pd)              on all atoms 


 
                                 NWChem DFT Module
                                 -----------------
 
 
                      Basis "ao basis" -> "ao basis" (cartesian)
                      -----
  C (Carbon)
  ----------
            Exponent  Coefficients 
       -------------- ---------------------------------------------------------
  1 S  4.56324000E+03  0.001967
  1 S  6.82024000E+02  0.015231
  1 S  1.54973000E+02  0.076127
  1 S  4.44553000E+01  0.260801
  1 S  1.30290000E+01  0.616462
  1 S  1.82773000E+00  0.221006
 
  2 S  2.09642000E+01  0.114660
  2 S  4.80331000E+00  0.919999
  2 S  1.45933000E+00 -0.003031
 
  3 P  2.09642000E+01  0.040249
  3 P  4.80331000E+00  0.237594
  3 P  1.45933000E+00  0.815854
 
  4 S  4.83456000E-01  1.000000
 
  5 P  4.83456000E-01  1.000000
 
  6 S  1.45585000E-01  1.000000
 
  7 P  1.45585000E-01  1.000000
 
  8 S  4.38000000E-02  1.000000
 
  9 P  4.38000000E-02  1.000000
 
 10 D  2.50400000E+00  1.000000
 
 11 D  6.26000000E-01  1.000000
 
 12 D  1.56500000E-01  1.000000
 
 13 F  8.00000000E-01  1.000000
 
  H (Hydrogen)
  ------------
            Exponent  Coefficients 
       -------------- ---------------------------------------------------------
  1 S  3.38650000E+01  0.025494
  1 S  5.09479000E+00  0.190373
  1 S  1.15879000E+00  0.852161
 
  2 S  3.25840000E-01  1.000000
 
  3 S  1.02741000E-01  1.000000
 
  4 S  3.60000000E-02  1.000000
 
  5 P  3.00000000E+00  1.000000
 
  6 P  7.50000000E-01  1.000000
 
  7 P  1.87500000E-01  1.000000
 
  8 D  1.00000000E+00  1.000000
 


 Summary of "ao basis" -> "ao basis" (cartesian)
 ------------------------------------------------------------------------------
       Tag                 Description            Shells   Functions and Types
 ---------------- ------------------------------  ------  ---------------------
 C                     6-311++G(3df,3pd)            13       45   5s4p3d1f
 H                     6-311++G(3df,3pd)             8       19   4s3p1d




 Summary of "ao basis" -> "ao basis" (cartesian)
 ------------------------------------------------------------------------------
       Tag                 Description            Shells   Functions and Types
 ---------------- ------------------------------  ------  ---------------------
 C                     6-311++G(3df,3pd)            13       45   5s4p3d1f
 H                     6-311++G(3df,3pd)             8       19   4s3p1d


      Symmetry analysis of basis
      --------------------------
 
        ag         35
        au          9
        b1g        24
        b1u        15
        b2g         9
        b2u        35
        b3g        15
        b3u        24
 
  Caching 1-el integrals 
 
            General Information
            -------------------
          SCF calculation type: DFT
          Wavefunction type:  closed shell.
          No. of atoms     :     6
          No. of electrons :    16
           Alpha electrons :     8
            Beta electrons :     8
          Charge           :     0
          Spin multiplicity:     1
          Use of symmetry is: on ; symmetry adaption is: on 
          Maximum number of iterations: ***
          AO basis - number of functions:   166
                     number of shells:    58
          Convergence on energy requested:  1.00D-06
          Convergence on density requested:  1.00D-05
          Convergence on gradient requested:  5.00D-04
 
              XC Information
              --------------
                  TPSS metaGGA Exchange Functional  1.000          
             TPSS03 metaGGA Correlation Functional  1.000          
 
             Grid Information
             ----------------
          Grid used for XC integration:  medium    
          Radial quadrature: Mura-Knowles        
          Angular quadrature: Lebedev. 
          Tag              B.-S. Rad. Rad. Pts. Rad. Cut. Ang. Pts.
          ---              ---------- --------- --------- ---------
          C                   0.70       49          12.0       434
          H                   0.35       45          13.0       434
          Grid pruning is: on 
          Number of quadrature shells:    94
          Spatial weights used:  Erf1
 
          Convergence Information
          -----------------------
          Convergence aids based upon iterative change in 
          total energy or number of iterations. 
          Levelshifting, if invoked, occurs when the 
          HOMO/LUMO gap drops below (HL_TOL):  1.00D-02
          DIIS, if invoked, will attempt to extrapolate 
          using up to (NFOCK): 10 stored Fock matrices.

                    Damping( 0%)  Levelshifting(0.5)       DIIS
                  --------------- ------------------- ---------------
          dE  on:    start            ASAP                start   
          dE off:    2 iters        *** iters           *** iters 

 
      Screening Tolerance Information
      -------------------------------
          Density screening/tol_rho:  1.00D-10
          AO Gaussian exp screening on grid/accAOfunc:  14
          CD Gaussian exp screening on grid/accCDfunc:  20
          XC Gaussian exp screening on grid/accXCfunc:  20
          Schwarz screening/accCoul:  1.00D-08

 
      Superposition of Atomic Density Guess
      -------------------------------------
 
 Sum of atomic energies:         -77.33750841
 
      Non-variational initial energy
      ------------------------------

 Total energy =     -78.449926
 1-e energy   =    -167.883438
 2-e energy   =      56.118077
 HOMO         =      -0.347037
 LUMO         =      -0.010758
 
 
      Symmetry analysis of molecular orbitals - initial
      -------------------------------------------------
 
  Numbering of irreducible representations: 
 
     1 ag          2 au          3 b1g         4 b1u         5 b2g     
     6 b2u         7 b3g         8 b3u     
 
  Orbital symmetries:
 
     1 ag          2 b2u         3 ag          4 b2u         5 b3u     
     6 ag          7 b1g         8 b1u         9 b3g        10 ag      
    11 b2u        12 b3u        13 b1g        14 b1u        15 ag      
    16 ag         17 b3g        18 b2u     
 
   Time after variat. SCF:      0.7
   Time prior to 1st pass:      0.7

 Integral file          = ./C2H4.aoints.00
 Record size in doubles =    65536    No. of integs per rec  =    43688
 Max. records in memory =       32    Max. records in file   =  1637522
 No. of bits per label  =        8    No. of bits per value  =       64


 #quartets = 4.480D+05 #integrals = 1.411D+07 #direct =  0.0% #cached =100.0%


File balance: exchanges=    32  moved=    33  time=   0.0


 Grid_pts file          = ./C2H4.gridpts.00
 Record size in doubles =  12289        No. of grid_pts per rec  =   3070
 Max. records in memory =      2        Max. recs in file   =  47483438


           Memory utilization after 1st SCF pass: 
           Heap Space remaining (MW):       10.93            10928044
          Stack Space remaining (MW):       13.11            13106196

   convergence    iter        energy       DeltaE   RMS-Dens  Diis-err    time
 ---------------- ----- ----------------- --------- --------- ---------  ------
 d= 0,ls=0.0,diis     1    -78.6105069717 -1.12D+02  2.83D-03  2.64D-01     4.3
 d= 0,ls=0.0,diis     2    -78.6294367641 -1.89D-02  7.81D-04  1.47D-02     4.5
 d= 0,ls=0.0,diis     3    -78.6300388363 -6.02D-04  2.87D-04  1.00D-02     4.7
 d= 0,ls=0.0,diis     4    -78.6312662364 -1.23D-03  6.50D-05  3.33D-04     4.9
 d= 0,ls=0.0,diis     5    -78.6313103570 -4.41D-05  6.16D-06  2.08D-06     5.1
 d= 0,ls=0.0,diis     6    -78.6313106091 -2.52D-07  9.65D-07  2.14D-09     5.4


         Total DFT energy =      -78.631310609085
      One electron energy =     -170.230858669405
           Coulomb energy =       70.607627541937
          Exchange energy =      -11.828308625612
       Correlation energy =       -0.495205512964
 Nuclear repulsion energy =       33.315434656960

 Numeric. integr. density =       15.999998574745

     Total iterative time =      4.7s


 
                  Occupations of the irreducible representations
                  ----------------------------------------------
 
                     irrep           alpha         beta
                     --------     --------     --------
                     ag                3.0          3.0
                     au                0.0          0.0
                     b1g               1.0          1.0
                     b1u               1.0          1.0
                     b2g               0.0          0.0
                     b2u               2.0          2.0
                     b3g               0.0          0.0
                     b3u               1.0          1.0
 
 
                       DFT Final Molecular Orbital Analysis
                       ------------------------------------
 
 Vector    1  Occ=2.000000D+00  E=-9.988035D+00  Symmetry=ag
              MO Center=  9.1D-18,  7.5D-14,  6.3D-22, r^2= 4.7D-01
   Bfn.  Coefficient  Atom+Function         Bfn.  Coefficient  Atom+Function  
  ----- ------------  ---------------      ----- ------------  ---------------
     1      0.398646  1 C  s                 46      0.398646  2 C  s          
     2      0.328685  1 C  s                 47      0.328685  2 C  s          
 
 Vector    2  Occ=2.000000D+00  E=-9.987371D+00  Symmetry=b2u
              MO Center=  7.0D-22, -7.5D-14,  8.3D-36, r^2= 4.7D-01
   Bfn.  Coefficient  Atom+Function         Bfn.  Coefficient  Atom+Function  
  ----- ------------  ---------------      ----- ------------  ---------------
     1      0.398713  1 C  s                 46     -0.398713  2 C  s          
     2      0.328777  1 C  s                 47     -0.328777  2 C  s          
 
 Vector    3  Occ=2.000000D+00  E=-7.066035D-01  Symmetry=ag
              MO Center=  1.5D-15,  2.0D-15,  8.3D-16, r^2= 1.1D+00
   Bfn.  Coefficient  Atom+Function         Bfn.  Coefficient  Atom+Function  
  ----- ------------  ---------------      ----- ------------  ---------------
     6      0.361174  1 C  s                 51      0.361174  2 C  s          
    10      0.255447  1 C  s                 55      0.255447  2 C  s          
     2     -0.145551  1 C  s                 47     -0.145551  2 C  s          
     1     -0.085986  1 C  s                 46     -0.085986  2 C  s          
    91      0.054614  3 H  s                110      0.054614  4 H  s          
 
 Vector    4  Occ=2.000000D+00  E=-5.379268D-01  Symmetry=b2u
              MO Center=  1.1D-17, -3.9D-15, -2.9D-31, r^2= 2.1D+00
   Bfn.  Coefficient  Atom+Function         Bfn.  Coefficient  Atom+Function  
  ----- ------------  ---------------      ----- ------------  ---------------
     6      0.290005  1 C  s                 51     -0.290005  2 C  s          
    10      0.139283  1 C  s                 55     -0.139283  2 C  s          
    12      0.121456  1 C  py                57      0.121456  2 C  py         
     2     -0.115611  1 C  s                 14      0.115987  1 C  s          
    47      0.115611  2 C  s                 59     -0.115987  2 C  s          
 
 Vector    5  Occ=2.000000D+00  E=-4.302385D-01  Symmetry=b3u
              MO Center= -1.0D-15, -2.2D-17, -8.2D-33, r^2= 1.9D+00
   Bfn.  Coefficient  Atom+Function         Bfn.  Coefficient  Atom+Function  
  ----- ------------  ---------------      ----- ------------  ---------------
     7      0.188452  1 C  px                52      0.188452  2 C  px         
     3      0.154456  1 C  px                48      0.154456  2 C  px         
    92      0.148428  3 H  s                111     -0.148428  4 H  s          
   130      0.148428  5 H  s                149     -0.148428  6 H  s          
    91      0.097376  3 H  s                110     -0.097376  4 H  s          
 
 Vector    6  Occ=2.000000D+00  E=-3.791529D-01  Symmetry=ag
              MO Center= -2.7D-16, -1.4D-15,  1.3D-15, r^2= 1.7D+00
   Bfn.  Coefficient  Atom+Function         Bfn.  Coefficient  Atom+Function  
  ----- ------------  ---------------      ----- ------------  ---------------
     8      0.231303  1 C  py                53     -0.231303  2 C  py         
     4      0.199043  1 C  py                49     -0.199043  2 C  py         
    12      0.143632  1 C  py                57     -0.143632  2 C  py         
    92      0.124137  3 H  s                111      0.124137  4 H  s          
   130      0.124137  5 H  s                149      0.124137  6 H  s          
 
 Vector    7  Occ=2.000000D+00  E=-3.233900D-01  Symmetry=b1g
              MO Center= -5.0D-16,  5.8D-16, -4.7D-16, r^2= 2.4D+00
   Bfn.  Coefficient  Atom+Function         Bfn.  Coefficient  Atom+Function  
  ----- ------------  ---------------      ----- ------------  ---------------
    92      0.190876  3 H  s                111     -0.190876  4 H  s          
   130     -0.190876  5 H  s                149      0.190876  6 H  s          
     7      0.174932  1 C  px                52     -0.174932  2 C  px         
     3      0.143485  1 C  px                48     -0.143485  2 C  px         
    11      0.141338  1 C  px                56     -0.141338  2 C  px         
 
 Vector    8  Occ=2.000000D+00  E=-2.472325D-01  Symmetry=b1u
              MO Center= -5.8D-19,  1.0D-17, -2.1D-15, r^2= 1.5D+00
   Bfn.  Coefficient  Atom+Function         Bfn.  Coefficient  Atom+Function  
  ----- ------------  ---------------      ----- ------------  ---------------
     9      0.259210  1 C  pz                54      0.259210  2 C  pz         
    13      0.222834  1 C  pz                58      0.222834  2 C  pz         
     5      0.187196  1 C  pz                50      0.187196  2 C  pz         
    28     -0.032004  1 C  dyz               73      0.032004  2 C  dyz        
    17      0.028759  1 C  pz                62      0.028759  2 C  pz         
 
 Vector    9  Occ=0.000000D+00  E=-3.216601D-02  Symmetry=b3g
              MO Center= -1.1D-15, -8.4D-15,  1.2D-14, r^2= 2.9D+00
   Bfn.  Coefficient  Atom+Function         Bfn.  Coefficient  Atom+Function  
  ----- ------------  ---------------      ----- ------------  ---------------
    17      0.472443  1 C  pz                62     -0.472443  2 C  pz         
    13      0.356161  1 C  pz                58     -0.356161  2 C  pz         
     9      0.264066  1 C  pz                54     -0.264066  2 C  pz         
     5      0.188196  1 C  pz                50     -0.188196  2 C  pz         
    34      0.066209  1 C  dyz               79      0.066209  2 C  dyz        
 
 Vector   10  Occ=0.000000D+00  E=-2.523214D-03  Symmetry=ag
              MO Center= -4.9D-14,  6.6D-14,  2.0D-14, r^2= 1.3D+01
   Bfn.  Coefficient  Atom+Function         Bfn.  Coefficient  Atom+Function  
  ----- ------------  ---------------      ----- ------------  ---------------
    14      1.447393  1 C  s                 59      1.447393  2 C  s          
    94     -1.001213  3 H  s                113     -1.001213  4 H  s          
   132     -1.001213  5 H  s                151     -1.001213  6 H  s          
    16      0.290778  1 C  py                61     -0.290778  2 C  py         
    93      0.108603  3 H  s                112      0.108603  4 H  s          
 
 Vector   11  Occ=0.000000D+00  E= 1.694415D-02  Symmetry=b2u
              MO Center= -3.6D-15, -5.0D-14, -1.3D-14, r^2= 1.5D+01
   Bfn.  Coefficient  Atom+Function         Bfn.  Coefficient  Atom+Function  
  ----- ------------  ---------------      ----- ------------  ---------------
    14      4.620478  1 C  s                 59     -4.620478  2 C  s          
    94     -1.600760  3 H  s                113     -1.600760  4 H  s          
   132      1.600760  5 H  s                151      1.600760  6 H  s          
    10      0.580809  1 C  s                 55     -0.580809  2 C  s          
    16     -0.341844  1 C  py                61     -0.341844  2 C  py         
 
 Vector   12  Occ=0.000000D+00  E= 1.977445D-02  Symmetry=b3u
              MO Center=  1.0D-13, -1.0D-13, -1.9D-16, r^2= 1.4D+01
   Bfn.  Coefficient  Atom+Function         Bfn.  Coefficient  Atom+Function  
  ----- ------------  ---------------      ----- ------------  ---------------
    94      1.853000  3 H  s                113     -1.853000  4 H  s          
   132      1.853000  5 H  s                151     -1.853000  6 H  s          
    15     -0.661296  1 C  px                60     -0.661296  2 C  px         
    31      0.133312  1 C  dxy               76     -0.133312  2 C  dxy        
     7     -0.086088  1 C  px                52     -0.086088  2 C  px         
 
 Vector   13  Occ=0.000000D+00  E= 5.454998D-02  Symmetry=b1g
              MO Center=  1.4D-14,  1.2D-13, -1.6D-29, r^2= 2.1D+01
   Bfn.  Coefficient  Atom+Function         Bfn.  Coefficient  Atom+Function  
  ----- ------------  ---------------      ----- ------------  ---------------
    94      6.433786  3 H  s                113     -6.433786  4 H  s          
   132     -6.433786  5 H  s                151      6.433786  6 H  s          
    15     -5.842632  1 C  px                60      5.842632  2 C  px         
    93      1.116868  3 H  s                112     -1.116868  4 H  s          
   131     -1.116868  5 H  s                150      1.116868  6 H  s          
 
 Vector   14  Occ=0.000000D+00  E= 6.161878D-02  Symmetry=b1u
              MO Center= -4.4D-19,  9.1D-15, -2.0D-14, r^2= 9.8D+00
   Bfn.  Coefficient  Atom+Function         Bfn.  Coefficient  Atom+Function  
  ----- ------------  ---------------      ----- ------------  ---------------
    17      0.630290  1 C  pz                62      0.630290  2 C  pz         
    13     -0.287162  1 C  pz                58     -0.287162  2 C  pz         
     5     -0.084572  1 C  pz                50     -0.084572  2 C  pz         
     9     -0.054311  1 C  pz                54     -0.054311  2 C  pz         
    43     -0.025423  1 C  fyyz              88     -0.025423  2 C  fyyz       
 
 Vector   15  Occ=0.000000D+00  E= 7.401365D-02  Symmetry=ag
              MO Center=  3.2D-13,  1.8D-12,  2.7D-16, r^2= 1.1D+01
   Bfn.  Coefficient  Atom+Function         Bfn.  Coefficient  Atom+Function  
  ----- ------------  ---------------      ----- ------------  ---------------
    14      1.968801  1 C  s                 59      1.968801  2 C  s          
    16      1.883340  1 C  py                61     -1.883340  2 C  py         
    10      1.181241  1 C  s                 55      1.181241  2 C  s          
    93     -1.115499  3 H  s                112     -1.115499  4 H  s          
   131     -1.115499  5 H  s                150     -1.115499  6 H  s          
 
 Vector   16  Occ=0.000000D+00  E= 9.872244D-02  Symmetry=ag
              MO Center= -2.3D-14,  3.8D-14, -1.4D-29, r^2= 9.9D+00
   Bfn.  Coefficient  Atom+Function         Bfn.  Coefficient  Atom+Function  
  ----- ------------  ---------------      ----- ------------  ---------------
    14      5.418869  1 C  s                 59      5.418869  2 C  s          
    10      2.138276  1 C  s                 55      2.138276  2 C  s          
    93     -2.137260  3 H  s                112     -2.137260  4 H  s          
   131     -2.137260  5 H  s                150     -2.137260  6 H  s          
    94     -1.649890  3 H  s                113     -1.649890  4 H  s          
 
 Vector   17  Occ=0.000000D+00  E= 1.148173D-01  Symmetry=b3g
              MO Center= -4.9D-16,  5.1D-16, -2.1D-14, r^2= 1.2D+01
   Bfn.  Coefficient  Atom+Function         Bfn.  Coefficient  Atom+Function  
  ----- ------------  ---------------      ----- ------------  ---------------
    17      2.178814  1 C  pz                62     -2.178814  2 C  pz         
    13     -0.423124  1 C  pz                58      0.423124  2 C  pz         
     5     -0.117156  1 C  pz                50      0.117156  2 C  pz         
     9     -0.111437  1 C  pz                54      0.111437  2 C  pz         
    34     -0.085586  1 C  dyz               79     -0.085586  2 C  dyz        
 
 Vector   18  Occ=0.000000D+00  E= 1.258148D-01  Symmetry=b2u
              MO Center=  2.7D-12, -2.4D-12, -5.5D-15, r^2= 1.6D+01
   Bfn.  Coefficient  Atom+Function         Bfn.  Coefficient  Atom+Function  
  ----- ------------  ---------------      ----- ------------  ---------------
    14     20.389309  1 C  s                 59    -20.389309  2 C  s          
    16     -9.786858  1 C  py                61     -9.786858  2 C  py         
    94      4.082173  3 H  s                113      4.082173  4 H  s          
   132     -4.082173  5 H  s                151     -4.082173  6 H  s          
    10     -1.245052  1 C  s                 55      1.245052  2 C  s          
 
 Vector   19  Occ=0.000000D+00  E= 1.343507D-01  Symmetry=ag
              MO Center= -1.9D-12,  7.6D-12, -6.7D-16, r^2= 1.3D+01
   Bfn.  Coefficient  Atom+Function         Bfn.  Coefficient  Atom+Function  
  ----- ------------  ---------------      ----- ------------  ---------------
    14      3.302267  1 C  s                 59      3.302267  2 C  s          
    10     -1.960314  1 C  s                 55     -1.960314  2 C  s          
    94     -1.797692  3 H  s                113     -1.797692  4 H  s          
   132     -1.797692  5 H  s                151     -1.797692  6 H  s          
    93      1.613044  3 H  s                112      1.613044  4 H  s          
 
 Vector   20  Occ=0.000000D+00  E= 1.384977D-01  Symmetry=b3u
              MO Center=  2.9D-12,  2.4D-13,  3.8D-15, r^2= 1.6D+01
   Bfn.  Coefficient  Atom+Function         Bfn.  Coefficient  Atom+Function  
  ----- ------------  ---------------      ----- ------------  ---------------
    94      4.359692  3 H  s                113     -4.359692  4 H  s          
   132      4.359692  5 H  s                151     -4.359692  6 H  s          
    15     -3.202701  1 C  px                60     -3.202701  2 C  px         
    93      0.639440  3 H  s                112     -0.639440  4 H  s          
   131      0.639440  5 H  s                150     -0.639440  6 H  s          
 
 Vector   21  Occ=0.000000D+00  E= 1.443797D-01  Symmetry=b2u
              MO Center= -2.2D-11, -7.2D-12,  9.9D-15, r^2= 1.5D+01
   Bfn.  Coefficient  Atom+Function         Bfn.  Coefficient  Atom+Function  
  ----- ------------  ---------------      ----- ------------  ---------------
    14     33.630704  1 C  s                 59    -33.630704  2 C  s          
    16     -7.243209  1 C  py                61     -7.243209  2 C  py         
    94     -1.826716  3 H  s                113     -1.826716  4 H  s          
   132      1.826716  5 H  s                151      1.826716  6 H  s          
    35     -0.567485  1 C  dzz               80      0.567485  2 C  dzz        
 
 Vector   22  Occ=0.000000D+00  E= 1.461670D-01  Symmetry=b3u
              MO Center= -1.3D-12, -4.1D-15,  3.7D-25, r^2= 7.5D+00
   Bfn.  Coefficient  Atom+Function         Bfn.  Coefficient  Atom+Function  
  ----- ------------  ---------------      ----- ------------  ---------------
    93      2.935712  3 H  s                112     -2.935712  4 H  s          
   131      2.935712  5 H  s                150     -2.935712  6 H  s          
    15     -1.837469  1 C  px                60     -1.837469  2 C  px         
    11     -1.618701  1 C  px                56     -1.618701  2 C  px         
    94      1.087118  3 H  s                113     -1.087118  4 H  s          
 
 Vector   23  Occ=0.000000D+00  E= 1.633036D-01  Symmetry=b1g
              MO Center=  2.0D-11, -2.5D-13, -1.4D-15, r^2= 1.9D+01
   Bfn.  Coefficient  Atom+Function         Bfn.  Coefficient  Atom+Function  
  ----- ------------  ---------------      ----- ------------  ---------------
    15     16.034293  1 C  px                60    -16.034293  2 C  px         
    94    -11.778983  3 H  s                113     11.778983  4 H  s          
   132     11.778983  5 H  s                151    -11.778983  6 H  s          
    93     -3.359005  3 H  s                112      3.359005  4 H  s          
   131      3.359005  5 H  s                150     -3.359005  6 H  s          
 
 Vector   24  Occ=0.000000D+00  E= 1.751398D-01  Symmetry=b2u
              MO Center= -1.2D-12,  7.8D-13,  1.6D-14, r^2= 1.0D+01
   Bfn.  Coefficient  Atom+Function         Bfn.  Coefficient  Atom+Function  
  ----- ------------  ---------------      ----- ------------  ---------------
    14     35.131551  1 C  s                 59    -35.131551  2 C  s          
    16     -6.751823  1 C  py                61     -6.751823  2 C  py         
    93     -4.547141  3 H  s                112     -4.547141  4 H  s          
   131      4.547141  5 H  s                150      4.547141  6 H  s          
    12      3.054330  1 C  py                57      3.054330  2 C  py         
 
 Vector   25  Occ=0.000000D+00  E= 2.480512D-01  Symmetry=b2g
              MO Center= -1.9D-15,  8.5D-15, -2.9D-15, r^2= 3.8D+00
   Bfn.  Coefficient  Atom+Function         Bfn.  Coefficient  Atom+Function  
  ----- ------------  ---------------      ----- ------------  ---------------
    32      0.542550  1 C  dxz               77      0.542550  2 C  dxz        
   103      0.255947  3 H  pz               122     -0.255947  4 H  pz         
   141      0.255947  5 H  pz               160     -0.255947  6 H  pz         
    26      0.039411  1 C  dxz               71      0.039411  2 C  dxz        
 
 Vector   26  Occ=0.000000D+00  E= 3.106107D-01  Symmetry=ag
              MO Center= -1.3D-14, -3.4D-13,  5.1D-28, r^2= 8.3D+00
   Bfn.  Coefficient  Atom+Function         Bfn.  Coefficient  Atom+Function  
  ----- ------------  ---------------      ----- ------------  ---------------
    10      4.780975  1 C  s                 55      4.780975  2 C  s          
    93     -3.851004  3 H  s                112     -3.851004  4 H  s          
   131     -3.851004  5 H  s                150     -3.851004  6 H  s          
    14      3.283398  1 C  s                 59      3.283398  2 C  s          
    12      1.597863  1 C  py                57     -1.597863  2 C  py         
 
 Vector   27  Occ=0.000000D+00  E= 3.150195D-01  Symmetry=b1g
              MO Center= -6.9D-14,  2.8D-13,  2.5D-16, r^2= 1.3D+01
   Bfn.  Coefficient  Atom+Function         Bfn.  Coefficient  Atom+Function  
  ----- ------------  ---------------      ----- ------------  ---------------
    15     18.828774  1 C  px                60    -18.828774  2 C  px         
    94    -10.468341  3 H  s                113     10.468341  4 H  s          
   132     10.468341  5 H  s                151    -10.468341  6 H  s          
    93     -8.439438  3 H  s                112      8.439438  4 H  s          
   131      8.439438  5 H  s                150     -8.439438  6 H  s          
 
 Vector   28  Occ=0.000000D+00  E= 3.267745D-01  Symmetry=b2u
              MO Center=  2.2D-13,  2.2D-14,  2.5D-16, r^2= 6.3D+00
   Bfn.  Coefficient  Atom+Function         Bfn.  Coefficient  Atom+Function  
  ----- ------------  ---------------      ----- ------------  ---------------
    14     11.090742  1 C  s                 59    -11.090742  2 C  s          
    16     -5.770758  1 C  py                61     -5.770758  2 C  py         
    94      2.028363  3 H  s                113      2.028363  4 H  s          
   132     -2.028363  5 H  s                151     -2.028363  6 H  s          
    93      1.945839  3 H  s                112      1.945839  4 H  s          
 
 Vector   29  Occ=0.000000D+00  E= 3.335580D-01  Symmetry=b3u
              MO Center= -8.4D-15, -5.0D-13,  6.8D-16, r^2= 8.3D+00
   Bfn.  Coefficient  Atom+Function         Bfn.  Coefficient  Atom+Function  
  ----- ------------  ---------------      ----- ------------  ---------------
    93      5.321310  3 H  s                112     -5.321310  4 H  s          
   131      5.321310  5 H  s                150     -5.321310  6 H  s          
    11     -3.292415  1 C  px                56     -3.292415  2 C  px         
    15     -2.538905  1 C  px                60     -2.538905  2 C  px         
    31     -1.769101  1 C  dxy               76      1.769101  2 C  dxy        
 
 Vector   30  Occ=0.000000D+00  E= 3.518763D-01  Symmetry=ag
              MO Center=  5.7D-14,  2.9D-13, -8.9D-28, r^2= 6.6D+00
   Bfn.  Coefficient  Atom+Function         Bfn.  Coefficient  Atom+Function  
  ----- ------------  ---------------      ----- ------------  ---------------
    14      3.376065  1 C  s                 59      3.376065  2 C  s          
    10      3.138868  1 C  s                 55      3.138868  2 C  s          
    93     -1.967135  3 H  s                112     -1.967135  4 H  s          
   131     -1.967135  5 H  s                150     -1.967135  6 H  s          
    35     -1.092170  1 C  dzz               80     -1.092170  2 C  dzz        
 
 Vector   31  Occ=0.000000D+00  E= 3.728114D-01  Symmetry=au
              MO Center=  1.2D-15, -8.8D-15,  1.7D-15, r^2= 4.9D+00
   Bfn.  Coefficient  Atom+Function         Bfn.  Coefficient  Atom+Function  
  ----- ------------  ---------------      ----- ------------  ---------------
   103      0.714870  3 H  pz               122     -0.714870  4 H  pz         
   141     -0.714870  5 H  pz               160      0.714870  6 H  pz         
    32     -0.187284  1 C  dxz               77      0.187284  2 C  dxz        
    26      0.034934  1 C  dxz               71     -0.034934  2 C  dxz        
    40      0.027729  1 C  fxyz              85      0.027729  2 C  fxyz       
 
 Vector   32  Occ=0.000000D+00  E= 3.843142D-01  Symmetry=b1u
              MO Center=  2.7D-15,  1.6D-15,  2.3D-16, r^2= 5.0D+00
   Bfn.  Coefficient  Atom+Function         Bfn.  Coefficient  Atom+Function  
  ----- ------------  ---------------      ----- ------------  ---------------
    34      0.833378  1 C  dyz               79     -0.833378  2 C  dyz        
   103      0.355087  3 H  pz               122      0.355087  4 H  pz         
   141      0.355087  5 H  pz               160      0.355087  6 H  pz         
    17     -0.290171  1 C  pz                62     -0.290171  2 C  pz         
     9     -0.154529  1 C  pz                54     -0.154529  2 C  pz         
 
 Vector   33  Occ=0.000000D+00  E= 3.961230D-01  Symmetry=b2u
              MO Center=  2.3D-13, -3.9D-13, -5.3D-16, r^2= 7.6D+00
   Bfn.  Coefficient  Atom+Function         Bfn.  Coefficient  Atom+Function  
  ----- ------------  ---------------      ----- ------------  ---------------
    14     21.294441  1 C  s                 59    -21.294441  2 C  s          
    10      6.954377  1 C  s                 55     -6.954377  2 C  s          
    93     -6.090446  3 H  s                112     -6.090446  4 H  s          
   131      6.090446  5 H  s                150      6.090446  6 H  s          
    16     -3.592522  1 C  py                61     -3.592522  2 C  py         
 
 Vector   34  Occ=0.000000D+00  E= 4.630248D-01  Symmetry=ag
              MO Center= -1.3D-13,  1.0D-14, -2.0D-18, r^2= 7.9D+00
   Bfn.  Coefficient  Atom+Function         Bfn.  Coefficient  Atom+Function  
  ----- ------------  ---------------      ----- ------------  ---------------
    10      3.209111  1 C  s                 55      3.209111  2 C  s          
    14     -2.872211  1 C  s                 59     -2.872211  2 C  s          
    93     -2.605676  3 H  s                112     -2.605676  4 H  s          
   131     -2.605676  5 H  s                150     -2.605676  6 H  s          
    30      1.478662  1 C  dxx               75      1.478662  2 C  dxx        
 
 Vector   35  Occ=0.000000D+00  E= 4.799024D-01  Symmetry=b3u
              MO Center=  1.7D-14, -2.1D-13, -3.6D-16, r^2= 7.2D+00
   Bfn.  Coefficient  Atom+Function         Bfn.  Coefficient  Atom+Function  
  ----- ------------  ---------------      ----- ------------  ---------------
    93      1.834490  3 H  s                112     -1.834490  4 H  s          
   131      1.834490  5 H  s                150     -1.834490  6 H  s          
    94     -1.748667  3 H  s                113      1.748667  4 H  s          
   132     -1.748667  5 H  s                151      1.748667  6 H  s          
    11     -1.335721  1 C  px                56     -1.335721  2 C  px         
 
 Vector   36  Occ=0.000000D+00  E= 4.884741D-01  Symmetry=b2u
              MO Center=  3.5D-13, -2.0D-13,  7.7D-15, r^2= 9.0D+00
   Bfn.  Coefficient  Atom+Function         Bfn.  Coefficient  Atom+Function  
  ----- ------------  ---------------      ----- ------------  ---------------
    14     18.869802  1 C  s                 59    -18.869802  2 C  s          
    10     13.859607  1 C  s                 55    -13.859607  2 C  s          
    12     -7.939571  1 C  py                57     -7.939571  2 C  py         
    35     -2.454080  1 C  dzz               80      2.454080  2 C  dzz        
    30     -2.369146  1 C  dxx               75      2.369146  2 C  dxx        
 
 Vector   37  Occ=0.000000D+00  E= 5.101080D-01  Symmetry=b3g
              MO Center= -1.3D-16, -2.0D-15, -1.1D-14, r^2= 5.7D+00
   Bfn.  Coefficient  Atom+Function         Bfn.  Coefficient  Atom+Function  
  ----- ------------  ---------------      ----- ------------  ---------------
    34     -1.783302  1 C  dyz               79     -1.783302  2 C  dyz        
    13      1.687934  1 C  pz                58     -1.687934  2 C  pz         
    17      1.196605  1 C  pz                62     -1.196605  2 C  pz         
   103     -0.576944  3 H  pz               122     -0.576944  4 H  pz         
   141      0.576944  5 H  pz               160      0.576944  6 H  pz         
 
 Vector   38  Occ=0.000000D+00  E= 5.223189D-01  Symmetry=b1u
              MO Center= -8.6D-16,  2.3D-15, -6.6D-16, r^2= 5.0D+00
   Bfn.  Coefficient  Atom+Function         Bfn.  Coefficient  Atom+Function  
  ----- ------------  ---------------      ----- ------------  ---------------
    34      1.910085  1 C  dyz               79     -1.910085  2 C  dyz        
    13      1.678951  1 C  pz                58      1.678951  2 C  pz         
   103     -1.190898  3 H  pz               122     -1.190898  4 H  pz         
   141     -1.190898  5 H  pz               160     -1.190898  6 H  pz         
     9      0.106650  1 C  pz                54      0.106650  2 C  pz         
 
 Vector   39  Occ=0.000000D+00  E= 5.284446D-01  Symmetry=b1g
              MO Center= -3.9D-14,  9.5D-14, -8.4D-29, r^2= 6.0D+00
   Bfn.  Coefficient  Atom+Function         Bfn.  Coefficient  Atom+Function  
  ----- ------------  ---------------      ----- ------------  ---------------
    11      4.751199  1 C  px                31     -4.747254  1 C  dxy        
    56     -4.751199  2 C  px                76     -4.747254  2 C  dxy        
    15      3.141935  1 C  px                60     -3.141935  2 C  px         
    94     -2.034751  3 H  s                113      2.034751  4 H  s          
   132      2.034751  5 H  s                151     -2.034751  6 H  s          
 
 Vector   40  Occ=0.000000D+00  E= 5.366925D-01  Symmetry=ag
              MO Center=  8.5D-15,  4.3D-13,  7.0D-17, r^2= 6.3D+00
   Bfn.  Coefficient  Atom+Function         Bfn.  Coefficient  Atom+Function  
  ----- ------------  ---------------      ----- ------------  ---------------
    10      4.136591  1 C  s                 55      4.136591  2 C  s          
    33     -3.611927  1 C  dyy               78     -3.611927  2 C  dyy        
    14      1.792800  1 C  s                 59      1.792800  2 C  s          
   102      0.848274  3 H  py               121      0.848274  4 H  py         
   140     -0.848274  5 H  py               159     -0.848274  6 H  py         
 
 Vector   41  Occ=0.000000D+00  E= 5.480514D-01  Symmetry=b1u
              MO Center= -4.1D-16, -8.5D-16,  4.8D-16, r^2= 3.7D+00
   Bfn.  Coefficient  Atom+Function         Bfn.  Coefficient  Atom+Function  
  ----- ------------  ---------------      ----- ------------  ---------------
    13      1.230855  1 C  pz                58      1.230855  2 C  pz         
     9     -0.710001  1 C  pz                54     -0.710001  2 C  pz         
    17     -0.328490  1 C  pz                62     -0.328490  2 C  pz         
   103     -0.296002  3 H  pz               122     -0.296002  4 H  pz         
   141     -0.296002  5 H  pz               160     -0.296002  6 H  pz         
 
 Vector   42  Occ=0.000000D+00  E= 5.883426D-01  Symmetry=b1g
              MO Center=  2.3D-13,  4.9D-13, -7.7D-17, r^2= 8.8D+00
   Bfn.  Coefficient  Atom+Function         Bfn.  Coefficient  Atom+Function  
  ----- ------------  ---------------      ----- ------------  ---------------
    15     14.488560  1 C  px                60    -14.488560  2 C  px         
    93    -10.969026  3 H  s                112     10.969026  4 H  s          
   131     10.969026  5 H  s                150    -10.969026  6 H  s          
    31      7.131165  1 C  dxy               76      7.131165  2 C  dxy        
    94     -6.904648  3 H  s                113      6.904648  4 H  s          
 
 Vector   43  Occ=0.000000D+00  E= 6.106334D-01  Symmetry=b2g
              MO Center=  1.8D-15, -6.9D-15,  4.7D-15, r^2= 5.1D+00
   Bfn.  Coefficient  Atom+Function         Bfn.  Coefficient  Atom+Function  
  ----- ------------  ---------------      ----- ------------  ---------------
    32      2.211161  1 C  dxz               77      2.211161  2 C  dxz        
   103     -1.359669  3 H  pz               122      1.359669  4 H  pz         
   141     -1.359669  5 H  pz               160      1.359669  6 H  pz         
   100      0.050244  3 H  pz               119     -0.050244  4 H  pz         
   138      0.050244  5 H  pz               157     -0.050244  6 H  pz         
 
 Vector   44  Occ=0.000000D+00  E= 6.215778D-01  Symmetry=b3u
              MO Center= -5.5D-14, -3.0D-13, -5.2D-15, r^2= 5.5D+00
   Bfn.  Coefficient  Atom+Function         Bfn.  Coefficient  Atom+Function  
  ----- ------------  ---------------      ----- ------------  ---------------
    11      3.992471  1 C  px                56      3.992471  2 C  px         
    31      2.936669  1 C  dxy               76     -2.936669  2 C  dxy        
    92     -1.967266  3 H  s                111      1.967266  4 H  s          
   130     -1.967266  5 H  s                149      1.967266  6 H  s          
    93     -1.786657  3 H  s                112      1.786657  4 H  s          
 
 Vector   45  Occ=0.000000D+00  E= 6.226245D-01  Symmetry=b3g
              MO Center=  4.1D-16,  8.0D-15, -3.3D-16, r^2= 5.6D+00
   Bfn.  Coefficient  Atom+Function         Bfn.  Coefficient  Atom+Function  
  ----- ------------  ---------------      ----- ------------  ---------------
    34      4.407211  1 C  dyz               79      4.407211  2 C  dyz        
   103     -1.276137  3 H  pz               122     -1.276137  4 H  pz         
   141      1.276137  5 H  pz               160      1.276137  6 H  pz         
    13     -0.832334  1 C  pz                58      0.832334  2 C  pz         
    17     -0.237224  1 C  pz                62      0.237224  2 C  pz         
 
 Vector   46  Occ=0.000000D+00  E= 6.952134D-01  Symmetry=b2u
              MO Center= -2.9D-13,  2.2D-14,  7.2D-18, r^2= 4.7D+00
   Bfn.  Coefficient  Atom+Function         Bfn.  Coefficient  Atom+Function  
  ----- ------------  ---------------      ----- ------------  ---------------
    14     15.531755  1 C  s                 59    -15.531755  2 C  s          
    10     12.761984  1 C  s                 55    -12.761984  2 C  s          
    12     -7.598998  1 C  py                57     -7.598998  2 C  py         
    16     -4.500257  1 C  py                61     -4.500257  2 C  py         
    30      2.739546  1 C  dxx               75     -2.739546  2 C  dxx        
 
 Vector   47  Occ=0.000000D+00  E= 7.318284D-01  Symmetry=b3g
              MO Center= -6.6D-17, -4.5D-15,  5.7D-15, r^2= 4.2D+00
   Bfn.  Coefficient  Atom+Function         Bfn.  Coefficient  Atom+Function  
  ----- ------------  ---------------      ----- ------------  ---------------
    13      5.592269  1 C  pz                58     -5.592269  2 C  pz         
    34     -4.002092  1 C  dyz               79     -4.002092  2 C  dyz        
     9     -0.569381  1 C  pz                54      0.569381  2 C  pz         
   103     -0.391780  3 H  pz               122     -0.391780  4 H  pz         
   141      0.391780  5 H  pz               160      0.391780  6 H  pz         
 
 Vector   48  Occ=0.000000D+00  E= 7.364878D-01  Symmetry=ag
              MO Center= -2.9D-14, -1.4D-13,  3.1D-16, r^2= 5.8D+00
   Bfn.  Coefficient  Atom+Function         Bfn.  Coefficient  Atom+Function  
  ----- ------------  ---------------      ----- ------------  ---------------
    10      4.824357  1 C  s                 55      4.824357  2 C  s          
    12      4.373135  1 C  py                57     -4.373135  2 C  py         
    93     -1.977082  3 H  s                112     -1.977082  4 H  s          
   131     -1.977082  5 H  s                150     -1.977082  6 H  s          
   101      1.927100  3 H  px               120     -1.927100  4 H  px         
 
 Vector   49  Occ=0.000000D+00  E= 7.406873D-01  Symmetry=b1g
              MO Center=  1.0D-13, -5.5D-14, -5.4D-29, r^2= 5.5D+00
   Bfn.  Coefficient  Atom+Function         Bfn.  Coefficient  Atom+Function  
  ----- ------------  ---------------      ----- ------------  ---------------
    31      8.963235  1 C  dxy               76      8.963235  2 C  dxy        
    11     -3.140933  1 C  px                15     -3.149124  1 C  px         
    56      3.140933  2 C  px                60      3.149124  2 C  px         
    94      2.300289  3 H  s                113     -2.300289  4 H  s          
   132     -2.300289  5 H  s                151      2.300289  6 H  s          
 
 Vector   50  Occ=0.000000D+00  E= 7.583281D-01  Symmetry=b2u
              MO Center= -1.0D-12, -2.6D-13,  1.6D-16, r^2= 6.1D+00
   Bfn.  Coefficient  Atom+Function         Bfn.  Coefficient  Atom+Function  
  ----- ------------  ---------------      ----- ------------  ---------------
    10     66.275638  1 C  s                 55    -66.275638  2 C  s          
    12    -39.927973  1 C  py                57    -39.927973  2 C  py         
    33     14.834760  1 C  dyy               78    -14.834760  2 C  dyy        
    14      3.035913  1 C  s                 59     -3.035913  2 C  s          
   102     -1.578726  3 H  py               121     -1.578726  4 H  py         
 
 Vector   51  Occ=0.000000D+00  E= 7.838258D-01  Symmetry=b3u
              MO Center= -1.5D-13, -4.3D-14, -1.5D-16, r^2= 7.1D+00
   Bfn.  Coefficient  Atom+Function         Bfn.  Coefficient  Atom+Function  
  ----- ------------  ---------------      ----- ------------  ---------------
    93      6.033647  3 H  s                112     -6.033647  4 H  s          
   131      6.033647  5 H  s                150     -6.033647  6 H  s          
    11     -4.310733  1 C  px                56     -4.310733  2 C  px         
   102     -2.099494  3 H  py               121      2.099494  4 H  py         
   140      2.099494  5 H  py               159     -2.099494  6 H  py         
 
 Vector   52  Occ=0.000000D+00  E= 8.368569D-01  Symmetry=au
              MO Center=  1.2D-15,  7.7D-15, -7.3D-17, r^2= 5.5D+00
   Bfn.  Coefficient  Atom+Function         Bfn.  Coefficient  Atom+Function  
  ----- ------------  ---------------      ----- ------------  ---------------
    32      7.768810  1 C  dxz               77     -7.768810  2 C  dxz        
   103     -2.552964  3 H  pz               122      2.552964  4 H  pz         
   141      2.552964  5 H  pz               160     -2.552964  6 H  pz         
   100      0.076829  3 H  pz               119     -0.076829  4 H  pz         
   138     -0.076829  5 H  pz               157      0.076829  6 H  pz         
 
 Vector   53  Occ=0.000000D+00  E= 8.432666D-01  Symmetry=b2u
              MO Center=  1.0D-13, -5.6D-13,  1.3D-16, r^2= 7.0D+00
   Bfn.  Coefficient  Atom+Function         Bfn.  Coefficient  Atom+Function  
  ----- ------------  ---------------      ----- ------------  ---------------
    10     66.836995  1 C  s                 55    -66.836995  2 C  s          
    12    -26.475228  1 C  py                57    -26.475228  2 C  py         
    33     10.514529  1 C  dyy               78    -10.514529  2 C  dyy        
    14     10.431605  1 C  s                 59    -10.431605  2 C  s          
    93     -6.160162  3 H  s                112     -6.160162  4 H  s          
 
 Vector   54  Occ=0.000000D+00  E= 8.755438D-01  Symmetry=ag
              MO Center=  3.3D-14, -1.1D-12, -4.2D-18, r^2= 5.8D+00
   Bfn.  Coefficient  Atom+Function         Bfn.  Coefficient  Atom+Function  
  ----- ------------  ---------------      ----- ------------  ---------------
    10      9.109825  1 C  s                 55      9.109825  2 C  s          
    93     -4.840479  3 H  s                112     -4.840479  4 H  s          
   131     -4.840479  5 H  s                150     -4.840479  6 H  s          
    92     -2.213963  3 H  s                111     -2.213963  4 H  s          
   130     -2.213963  5 H  s                149     -2.213963  6 H  s          
 
 Vector   55  Occ=0.000000D+00  E= 9.040804D-01  Symmetry=ag
              MO Center=  4.8D-14, -3.6D-12, -5.7D-18, r^2= 4.9D+00
   Bfn.  Coefficient  Atom+Function         Bfn.  Coefficient  Atom+Function  
  ----- ------------  ---------------      ----- ------------  ---------------
    10      8.976351  1 C  s                 55      8.976351  2 C  s          
    33     -6.524760  1 C  dyy               78     -6.524760  2 C  dyy        
    30      3.356779  1 C  dxx               75      3.356779  2 C  dxx        
    12      3.115003  1 C  py                57     -3.115003  2 C  py         
    92     -2.318593  3 H  s                111     -2.318593  4 H  s          
 
 Vector   56  Occ=0.000000D+00  E= 9.363492D-01  Symmetry=b2u
              MO Center=  3.1D-13,  2.7D-12, -7.1D-16, r^2= 5.2D+00
   Bfn.  Coefficient  Atom+Function         Bfn.  Coefficient  Atom+Function  
  ----- ------------  ---------------      ----- ------------  ---------------
    10    145.066231  1 C  s                 55   -145.066231  2 C  s          
    12    -89.290586  1 C  py                57    -89.290586  2 C  py         
    33     25.851290  1 C  dyy               78    -25.851290  2 C  dyy        
    30     -1.997736  1 C  dxx               75      1.997736  2 C  dxx        
    92      1.884043  3 H  s                111      1.884043  4 H  s          
 
 Vector   57  Occ=0.000000D+00  E= 9.804517D-01  Symmetry=b3u
              MO Center=  1.4D-13,  4.2D-13, -3.0D-17, r^2= 5.1D+00
   Bfn.  Coefficient  Atom+Function         Bfn.  Coefficient  Atom+Function  
  ----- ------------  ---------------      ----- ------------  ---------------
    31      6.439247  1 C  dxy               76     -6.439247  2 C  dxy        
    11      4.055273  1 C  px                56      4.055273  2 C  px         
    92     -3.006844  3 H  s                111      3.006844  4 H  s          
   130     -3.006844  5 H  s                149      3.006844  6 H  s          
    93     -2.809411  3 H  s                112      2.809411  4 H  s          
 
 Vector   58  Occ=0.000000D+00  E= 1.028881D+00  Symmetry=b1g
              MO Center=  9.1D-13, -5.5D-13, -1.1D-27, r^2= 7.2D+00
   Bfn.  Coefficient  Atom+Function         Bfn.  Coefficient  Atom+Function  
  ----- ------------  ---------------      ----- ------------  ---------------
    11     23.606835  1 C  px                56    -23.606835  2 C  px         
    31    -13.792814  1 C  dxy               76    -13.792814  2 C  dxy        
    93    -11.547223  3 H  s                112     11.547223  4 H  s          
   131     11.547223  5 H  s                150    -11.547223  6 H  s          
    15     10.973668  1 C  px                60    -10.973668  2 C  px         
 
 Vector   59  Occ=0.000000D+00  E= 1.031750D+00  Symmetry=b2u
              MO Center= -3.5D-15,  2.1D-12, -2.9D-17, r^2= 5.4D+00
   Bfn.  Coefficient  Atom+Function         Bfn.  Coefficient  Atom+Function  
  ----- ------------  ---------------      ----- ------------  ---------------
    10     14.355598  1 C  s                 55    -14.355598  2 C  s          
    12    -11.303086  1 C  py                57    -11.303086  2 C  py         
    30     -8.975996  1 C  dxx               75      8.975996  2 C  dxx        
    14     -7.320402  1 C  s                 59      7.320402  2 C  s          
    33      4.633338  1 C  dyy               78     -4.633338  2 C  dyy        
 
 Vector   60  Occ=0.000000D+00  E= 1.150632D+00  Symmetry=b1g
              MO Center= -1.3D-12,  2.3D-13,  7.5D-29, r^2= 5.5D+00
   Bfn.  Coefficient  Atom+Function         Bfn.  Coefficient  Atom+Function  
  ----- ------------  ---------------      ----- ------------  ---------------
    31     33.830762  1 C  dxy               76     33.830762  2 C  dxy        
    11    -23.561284  1 C  px                56     23.561284  2 C  px         
    93     -4.478355  3 H  s                112      4.478355  4 H  s          
   131      4.478355  5 H  s                150     -4.478355  6 H  s          
    15      3.882179  1 C  px                60     -3.882179  2 C  px         
 
 Vector   61  Occ=0.000000D+00  E= 1.183879D+00  Symmetry=ag
              MO Center=  5.9D-14,  4.0D-13, -4.5D-18, r^2= 4.4D+00
   Bfn.  Coefficient  Atom+Function         Bfn.  Coefficient  Atom+Function  
  ----- ------------  ---------------      ----- ------------  ---------------
    10      5.511819  1 C  s                 55      5.511819  2 C  s          
    33     -2.884319  1 C  dyy               78     -2.884319  2 C  dyy        
    14      2.529911  1 C  s                 59      2.529911  2 C  s          
     6     -2.386494  1 C  s                 30     -2.382329  1 C  dxx        
    51     -2.386494  2 C  s                 75     -2.382329  2 C  dxx        
 
 Vector   62  Occ=0.000000D+00  E= 1.298012D+00  Symmetry=b2u
              MO Center= -2.2D-14, -2.8D-13,  1.5D-17, r^2= 5.0D+00
   Bfn.  Coefficient  Atom+Function         Bfn.  Coefficient  Atom+Function  
  ----- ------------  ---------------      ----- ------------  ---------------
    10     18.916959  1 C  s                 55    -18.916959  2 C  s          
    12    -15.050908  1 C  py                57    -15.050908  2 C  py         
    14    -10.933005  1 C  s                 59     10.933005  2 C  s          
    33      8.017695  1 C  dyy               78     -8.017695  2 C  dyy        
    35      3.819471  1 C  dzz               80     -3.819471  2 C  dzz        
 
 Vector   63  Occ=0.000000D+00  E= 1.340216D+00  Symmetry=b2g
              MO Center= -1.7D-13, -1.3D-16, -5.1D-16, r^2= 2.2D+00
   Bfn.  Coefficient  Atom+Function         Bfn.  Coefficient  Atom+Function  
  ----- ------------  ---------------      ----- ------------  ---------------
    26      0.977609  1 C  dxz               71      0.977609  2 C  dxz        
    32     -0.557418  1 C  dxz               77     -0.557418  2 C  dxz        
   100      0.282628  3 H  pz               119     -0.282628  4 H  pz         
   138      0.282628  5 H  pz               157     -0.282628  6 H  pz         
    40     -0.124760  1 C  fxyz              85      0.124760  2 C  fxyz       
 
 Vector   64  Occ=0.000000D+00  E= 1.343214D+00  Symmetry=b1u
              MO Center=  1.7D-13,  1.2D-16, -1.5D-17, r^2= 2.2D+00
   Bfn.  Coefficient  Atom+Function         Bfn.  Coefficient  Atom+Function  
  ----- ------------  ---------------      ----- ------------  ---------------
    28      1.056751  1 C  dyz               73     -1.056751  2 C  dyz        
    34     -0.784375  1 C  dyz               79      0.784375  2 C  dyz        
   100      0.199370  3 H  pz               119      0.199370  4 H  pz         
   138      0.199370  5 H  pz               157      0.199370  6 H  pz         
    13     -0.150500  1 C  pz                58     -0.150500  2 C  pz         
 
 Vector   65  Occ=0.000000D+00  E= 1.490867D+00  Symmetry=au
              MO Center=  9.1D-16, -1.0D-15, -6.7D-17, r^2= 2.8D+00
   Bfn.  Coefficient  Atom+Function         Bfn.  Coefficient  Atom+Function  
  ----- ------------  ---------------      ----- ------------  ---------------
    32      2.470205  1 C  dxz               77     -2.470205  2 C  dxz        
    26     -0.874082  1 C  dxz               71      0.874082  2 C  dxz        
   100     -0.381919  3 H  pz               119      0.381919  4 H  pz         
   138      0.381919  5 H  pz               157     -0.381919  6 H  pz         
   103     -0.333978  3 H  pz               122      0.333978  4 H  pz         
 
 Vector   66  Occ=0.000000D+00  E= 1.497410D+00  Symmetry=ag
              MO Center= -4.7D-15,  1.9D-13, -1.7D-17, r^2= 3.3D+00
   Bfn.  Coefficient  Atom+Function         Bfn.  Coefficient  Atom+Function  
  ----- ------------  ---------------      ----- ------------  ---------------
    10      2.212531  1 C  s                 55      2.212531  2 C  s          
    12      1.411185  1 C  py                57     -1.411185  2 C  py         
    14     -1.311659  1 C  s                 59     -1.311659  2 C  s          
    92     -1.316121  3 H  s                111     -1.316121  4 H  s          
   130     -1.316121  5 H  s                149     -1.316121  6 H  s          
 
 Vector   67  Occ=0.000000D+00  E= 1.620167D+00  Symmetry=b3u
              MO Center=  1.9D-14, -6.4D-16,  2.0D-16, r^2= 3.2D+00
   Bfn.  Coefficient  Atom+Function         Bfn.  Coefficient  Atom+Function  
  ----- ------------  ---------------      ----- ------------  ---------------
    11      3.205687  1 C  px                56      3.205687  2 C  px         
    93     -3.083124  3 H  s                112      3.083124  4 H  s          
   131     -3.083124  5 H  s                150      3.083124  6 H  s          
    92     -1.921453  3 H  s                111      1.921453  4 H  s          
   130     -1.921453  5 H  s                149      1.921453  6 H  s          
 
 Vector   68  Occ=0.000000D+00  E= 1.713826D+00  Symmetry=ag
              MO Center=  2.4D-15,  2.8D-14,  1.4D-19, r^2= 2.3D+00
   Bfn.  Coefficient  Atom+Function         Bfn.  Coefficient  Atom+Function  
  ----- ------------  ---------------      ----- ------------  ---------------
    10      4.343920  1 C  s                 55      4.343920  2 C  s          
    30     -1.450777  1 C  dxx               75     -1.450777  2 C  dxx        
    29     -1.023572  1 C  dzz               74     -1.023572  2 C  dzz        
     6     -0.881931  1 C  s                 51     -0.881931  2 C  s          
   101      0.825249  3 H  px               120     -0.825249  4 H  px         
 
 Vector   69  Occ=0.000000D+00  E= 1.753105D+00  Symmetry=b1g
              MO Center=  6.7D-13, -1.3D-12, -2.4D-16, r^2= 3.5D+00
   Bfn.  Coefficient  Atom+Function         Bfn.  Coefficient  Atom+Function  
  ----- ------------  ---------------      ----- ------------  ---------------
    11     15.158391  1 C  px                56    -15.158391  2 C  px         
    31    -13.502662  1 C  dxy               76    -13.502662  2 C  dxy        
    93     -2.735541  3 H  s                112      2.735541  4 H  s          
   131      2.735541  5 H  s                150     -2.735541  6 H  s          
   102      2.075158  3 H  py               121     -2.075158  4 H  py         
 
 Vector   70  Occ=0.000000D+00  E= 1.757295D+00  Symmetry=b3g
              MO Center=  1.2D-16,  4.9D-16,  8.3D-16, r^2= 3.1D+00
   Bfn.  Coefficient  Atom+Function         Bfn.  Coefficient  Atom+Function  
  ----- ------------  ---------------      ----- ------------  ---------------
    13      0.935077  1 C  pz                58     -0.935077  2 C  pz         
    28      0.752531  1 C  dyz               73      0.752531  2 C  dyz        
    34     -0.666759  1 C  dyz               79     -0.666759  2 C  dyz        
    17      0.521443  1 C  pz                62     -0.521443  2 C  pz         
   103     -0.509929  3 H  pz               122     -0.509929  4 H  pz         
 
 Vector   71  Occ=0.000000D+00  E= 1.783843D+00  Symmetry=b2u
              MO Center= -5.7D-13,  7.3D-14, -6.3D-18, r^2= 3.3D+00
   Bfn.  Coefficient  Atom+Function         Bfn.  Coefficient  Atom+Function  
  ----- ------------  ---------------      ----- ------------  ---------------
    14      8.795530  1 C  s                 59     -8.795530  2 C  s          
    10      5.802541  1 C  s                 55     -5.802541  2 C  s          
    12      2.374512  1 C  py                57      2.374512  2 C  py         
    93     -2.355002  3 H  s                112     -2.355002  4 H  s          
   131      2.355002  5 H  s                150      2.355002  6 H  s          
 
 Vector   72  Occ=0.000000D+00  E= 1.801065D+00  Symmetry=b3u
              MO Center=  7.7D-15,  1.3D-12,  6.3D-17, r^2= 3.5D+00
   Bfn.  Coefficient  Atom+Function         Bfn.  Coefficient  Atom+Function  
  ----- ------------  ---------------      ----- ------------  ---------------
    11      2.200442  1 C  px                56      2.200442  2 C  px         
    92     -1.760410  3 H  s                 93     -1.759634  3 H  s          
   111      1.760410  4 H  s                112      1.759634  4 H  s          
   130     -1.760410  5 H  s                131     -1.759634  5 H  s          
   149      1.760410  6 H  s                150      1.759634  6 H  s          
 
 Vector   73  Occ=0.000000D+00  E= 1.947270D+00  Symmetry=b1u
              MO Center=  1.4D-17,  9.6D-17, -2.1D-17, r^2= 3.0D+00
   Bfn.  Coefficient  Atom+Function         Bfn.  Coefficient  Atom+Function  
  ----- ------------  ---------------      ----- ------------  ---------------
   103     -0.607405  3 H  pz               122     -0.607405  4 H  pz         
   141     -0.607405  5 H  pz               160     -0.607405  6 H  pz         
   100      0.596254  3 H  pz               119      0.596254  4 H  pz         
   138      0.596254  5 H  pz               157      0.596254  6 H  pz         
    34      0.571440  1 C  dyz               79     -0.571440  2 C  dyz        
 
 Vector   74  Occ=0.000000D+00  E= 1.995613D+00  Symmetry=b2g
              MO Center= -7.4D-17,  1.5D-15, -5.0D-17, r^2= 2.7D+00
   Bfn.  Coefficient  Atom+Function         Bfn.  Coefficient  Atom+Function  
  ----- ------------  ---------------      ----- ------------  ---------------
    32      1.049621  1 C  dxz               77      1.049621  2 C  dxz        
    26     -0.832250  1 C  dxz               71     -0.832250  2 C  dxz        
    40      0.774449  1 C  fxyz              85     -0.774449  2 C  fxyz       
   103     -0.733282  3 H  pz               122      0.733282  4 H  pz         
   141     -0.733282  5 H  pz               160      0.733282  6 H  pz         
 
 Vector   75  Occ=0.000000D+00  E= 2.008415D+00  Symmetry=b2u
              MO Center=  4.0D-14, -1.0D-13, -4.9D-17, r^2= 3.0D+00
   Bfn.  Coefficient  Atom+Function         Bfn.  Coefficient  Atom+Function  
  ----- ------------  ---------------      ----- ------------  ---------------
    12      4.703970  1 C  py                57      4.703970  2 C  py         
    93     -2.214709  3 H  s                112     -2.214709  4 H  s          
   131      2.214709  5 H  s                150      2.214709  6 H  s          
    33     -2.108116  1 C  dyy               78      2.108116  2 C  dyy        
    10      1.915994  1 C  s                 55     -1.915994  2 C  s          
 
 Vector   76  Occ=0.000000D+00  E= 2.167508D+00  Symmetry=b3g
              MO Center= -5.1D-16, -2.4D-16, -6.0D-17, r^2= 2.4D+00
   Bfn.  Coefficient  Atom+Function         Bfn.  Coefficient  Atom+Function  
  ----- ------------  ---------------      ----- ------------  ---------------
    34      1.998566  1 C  dyz               79      1.998566  2 C  dyz        
    28     -1.262164  1 C  dyz               73     -1.262164  2 C  dyz        
    13     -0.630601  1 C  pz                58      0.630601  2 C  pz         
   103     -0.565365  3 H  pz               122     -0.565365  4 H  pz         
   141      0.565365  5 H  pz               160      0.565365  6 H  pz         
 
 Vector   77  Occ=0.000000D+00  E= 2.259887D+00  Symmetry=ag
              MO Center= -3.1D-15,  9.6D-14,  3.5D-18, r^2= 3.9D+00
   Bfn.  Coefficient  Atom+Function         Bfn.  Coefficient  Atom+Function  
  ----- ------------  ---------------      ----- ------------  ---------------
    10      8.196976  1 C  s                 55      8.196976  2 C  s          
    92     -4.175117  3 H  s                111     -4.175117  4 H  s          
   130     -4.175117  5 H  s                149     -4.175117  6 H  s          
    93     -3.508448  3 H  s                112     -3.508448  4 H  s          
   131     -3.508448  5 H  s                150     -3.508448  6 H  s          
 
 Vector   78  Occ=0.000000D+00  E= 2.288861D+00  Symmetry=au
              MO Center= -1.1D-15, -3.3D-16,  1.6D-15, r^2= 2.7D+00
   Bfn.  Coefficient  Atom+Function         Bfn.  Coefficient  Atom+Function  
  ----- ------------  ---------------      ----- ------------  ---------------
    32      2.368373  1 C  dxz               77     -2.368373  2 C  dxz        
    26     -1.234164  1 C  dxz               71      1.234164  2 C  dxz        
   103     -0.970582  3 H  pz               122      0.970582  4 H  pz         
   141      0.970582  5 H  pz               160     -0.970582  6 H  pz         
   100      0.563012  3 H  pz               119     -0.563012  4 H  pz         
 
 Vector   79  Occ=0.000000D+00  E= 2.292440D+00  Symmetry=b1g
              MO Center=  8.6D-13, -1.3D-14, -1.4D-15, r^2= 4.2D+00
   Bfn.  Coefficient  Atom+Function         Bfn.  Coefficient  Atom+Function  
  ----- ------------  ---------------      ----- ------------  ---------------
    31      7.752604  1 C  dxy               76      7.752604  2 C  dxy        
    93     -7.581885  3 H  s                112      7.581885  4 H  s          
   131      7.581885  5 H  s                150     -7.581885  6 H  s          
    15      6.143232  1 C  px                60     -6.143232  2 C  px         
    92     -4.637447  3 H  s                111      4.637447  4 H  s          
 
 Vector   80  Occ=0.000000D+00  E= 2.355733D+00  Symmetry=b2u
              MO Center= -7.5D-13, -6.9D-13,  3.4D-16, r^2= 3.8D+00
   Bfn.  Coefficient  Atom+Function         Bfn.  Coefficient  Atom+Function  
  ----- ------------  ---------------      ----- ------------  ---------------
    14      6.349417  1 C  s                 59     -6.349417  2 C  s          
    10      5.993541  1 C  s                 55     -5.993541  2 C  s          
    12      5.736818  1 C  py                57      5.736818  2 C  py         
    92     -5.454588  3 H  s                111     -5.454588  4 H  s          
   130      5.454588  5 H  s                149      5.454588  6 H  s          
 
 Vector   81  Occ=0.000000D+00  E= 2.367001D+00  Symmetry=b3u
              MO Center= -1.9D-13, -9.8D-13,  7.8D-21, r^2= 4.1D+00
   Bfn.  Coefficient  Atom+Function         Bfn.  Coefficient  Atom+Function  
  ----- ------------  ---------------      ----- ------------  ---------------
    92      5.137876  3 H  s                111     -5.137876  4 H  s          
   130      5.137876  5 H  s                149     -5.137876  6 H  s          
    11     -4.376980  1 C  px                56     -4.376980  2 C  px         
    31     -2.897822  1 C  dxy               76      2.897822  2 C  dxy        
    25     -2.073909  1 C  dxy               70      2.073909  2 C  dxy        
 
 Vector   82  Occ=0.000000D+00  E= 2.372776D+00  Symmetry=ag
              MO Center=  2.3D-13,  3.1D-13, -3.2D-18, r^2= 3.2D+00
   Bfn.  Coefficient  Atom+Function         Bfn.  Coefficient  Atom+Function  
  ----- ------------  ---------------      ----- ------------  ---------------
    10      7.248023  1 C  s                 55      7.248023  2 C  s          
    92     -2.869335  3 H  s                111     -2.869335  4 H  s          
   130     -2.869335  5 H  s                149     -2.869335  6 H  s          
    93     -2.093560  3 H  s                112     -2.093560  4 H  s          
   131     -2.093560  5 H  s                150     -2.093560  6 H  s          
 
 Vector   83  Occ=0.000000D+00  E= 2.400311D+00  Symmetry=b1g
              MO Center=  4.5D-14,  8.7D-13, -8.5D-17, r^2= 3.5D+00
   Bfn.  Coefficient  Atom+Function         Bfn.  Coefficient  Atom+Function  
  ----- ------------  ---------------      ----- ------------  ---------------
    92      3.928475  3 H  s                111     -3.928475  4 H  s          
   130     -3.928475  5 H  s                149      3.928475  6 H  s          
    11     -2.939452  1 C  px                56      2.939452  2 C  px         
    31     -2.654591  1 C  dxy               76     -2.654591  2 C  dxy        
    25     -1.808649  1 C  dxy               70     -1.808649  2 C  dxy        
 
 Vector   84  Occ=0.000000D+00  E= 2.518238D+00  Symmetry=b3u
              MO Center= -4.5D-14, -6.2D-14,  1.3D-17, r^2= 2.9D+00
   Bfn.  Coefficient  Atom+Function         Bfn.  Coefficient  Atom+Function  
  ----- ------------  ---------------      ----- ------------  ---------------
    11      2.808080  1 C  px                56      2.808080  2 C  px         
    93     -2.656764  3 H  s                112      2.656764  4 H  s          
   131     -2.656764  5 H  s                150      2.656764  6 H  s          
    92     -2.367321  3 H  s                111      2.367321  4 H  s          
   130     -2.367321  5 H  s                149      2.367321  6 H  s          
 
 Vector   85  Occ=0.000000D+00  E= 2.643626D+00  Symmetry=b1u
              MO Center= -3.8D-16,  7.7D-15,  3.7D-17, r^2= 1.5D+00
   Bfn.  Coefficient  Atom+Function         Bfn.  Coefficient  Atom+Function  
  ----- ------------  ---------------      ----- ------------  ---------------
     5      0.693007  1 C  pz                50      0.693007  2 C  pz         
    13      0.688436  1 C  pz                58      0.688436  2 C  pz         
     9     -0.469347  1 C  pz                38      0.468167  1 C  fxxz       
    54     -0.469347  2 C  pz                83      0.468167  2 C  fxxz       
    45     -0.397449  1 C  fzzz              90     -0.397449  2 C  fzzz       
 
 Vector   86  Occ=0.000000D+00  E= 2.684134D+00  Symmetry=b3u
              MO Center=  1.6D-15, -1.1D-14,  3.2D-17, r^2= 2.0D+00
   Bfn.  Coefficient  Atom+Function         Bfn.  Coefficient  Atom+Function  
  ----- ------------  ---------------      ----- ------------  ---------------
    11      1.460312  1 C  px                56      1.460312  2 C  px         
    41     -1.342683  1 C  fxzz              86     -1.342683  2 C  fxzz       
    31      1.245363  1 C  dxy               76     -1.245363  2 C  dxy        
    93     -0.989965  3 H  s                112      0.989965  4 H  s          
   131     -0.989965  5 H  s                150      0.989965  6 H  s          
 
 Vector   87  Occ=0.000000D+00  E= 2.690844D+00  Symmetry=ag
              MO Center=  5.4D-14,  6.6D-13, -8.5D-18, r^2= 2.8D+00
   Bfn.  Coefficient  Atom+Function         Bfn.  Coefficient  Atom+Function  
  ----- ------------  ---------------      ----- ------------  ---------------
    10      7.378227  1 C  s                 55      7.378227  2 C  s          
    92     -3.806592  3 H  s                111     -3.806592  4 H  s          
   130     -3.806592  5 H  s                149     -3.806592  6 H  s          
    12      3.131201  1 C  py                57     -3.131201  2 C  py         
    33     -2.880703  1 C  dyy               78     -2.880703  2 C  dyy        
 
 Vector   88  Occ=0.000000D+00  E= 2.724044D+00  Symmetry=b2u
              MO Center=  1.3D-13,  7.9D-13,  6.5D-17, r^2= 3.4D+00
   Bfn.  Coefficient  Atom+Function         Bfn.  Coefficient  Atom+Function  
  ----- ------------  ---------------      ----- ------------  ---------------
    12      7.257062  1 C  py                57      7.257062  2 C  py         
    14      5.591613  1 C  s                 59     -5.591613  2 C  s          
    92     -4.499123  3 H  s                111     -4.499123  4 H  s          
   130      4.499123  5 H  s                149      4.499123  6 H  s          
    30      4.114304  1 C  dxx               75     -4.114304  2 C  dxx        
 
 Vector   89  Occ=0.000000D+00  E= 2.809254D+00  Symmetry=b1u
              MO Center=  2.7D-17, -4.9D-17, -2.7D-17, r^2= 2.0D+00
   Bfn.  Coefficient  Atom+Function         Bfn.  Coefficient  Atom+Function  
  ----- ------------  ---------------      ----- ------------  ---------------
    38      0.882658  1 C  fxxz              83      0.882658  2 C  fxxz       
    43     -0.700564  1 C  fyyz              88     -0.700564  2 C  fyyz       
    34      0.421528  1 C  dyz               79     -0.421528  2 C  dyz        
   108     -0.420034  3 H  dyz              127     -0.420034  4 H  dyz        
   146      0.420034  5 H  dyz              165      0.420034  6 H  dyz        
 
 Vector   90  Occ=0.000000D+00  E= 2.820628D+00  Symmetry=b3g
              MO Center=  4.1D-16, -7.3D-15, -1.4D-16, r^2= 1.5D+00
   Bfn.  Coefficient  Atom+Function         Bfn.  Coefficient  Atom+Function  
  ----- ------------  ---------------      ----- ------------  ---------------
    13      1.997006  1 C  pz                58     -1.997006  2 C  pz         
    34     -1.097231  1 C  dyz               79     -1.097231  2 C  dyz        
     5      0.680617  1 C  pz                50     -0.680617  2 C  pz         
    45     -0.620730  1 C  fzzz              90      0.620730  2 C  fzzz       
     9     -0.332857  1 C  pz                54      0.332857  2 C  pz         
 
 Vector   91  Occ=0.000000D+00  E= 2.846635D+00  Symmetry=b1g
              MO Center=  1.1D-13, -3.9D-15,  3.7D-17, r^2= 2.5D+00
   Bfn.  Coefficient  Atom+Function         Bfn.  Coefficient  Atom+Function  
  ----- ------------  ---------------      ----- ------------  ---------------
    11      3.932453  1 C  px                56     -3.932453  2 C  px         
    93     -3.253223  3 H  s                112      3.253223  4 H  s          
   131      3.253223  5 H  s                150     -3.253223  6 H  s          
    15      2.438525  1 C  px                60     -2.438525  2 C  px         
    92     -1.934425  3 H  s                111      1.934425  4 H  s          
 
 Vector   92  Occ=0.000000D+00  E= 2.880200D+00  Symmetry=ag
              MO Center= -5.9D-14,  5.0D-13,  1.7D-17, r^2= 2.4D+00
[...]
 
 Vector  146  Occ=0.000000D+00  E= 8.768705D+00  Symmetry=b2g
              MO Center=  3.5D-14,  2.5D-13,  1.5D-16, r^2= 2.7D+00
   Bfn.  Coefficient  Atom+Function         Bfn.  Coefficient  Atom+Function  
  ----- ------------  ---------------      ----- ------------  ---------------
    97      0.650140  3 H  pz               116     -0.650140  4 H  pz         
   135      0.650140  5 H  pz               154     -0.650140  6 H  pz         
    40      0.643476  1 C  fxyz              85     -0.643476  2 C  fxyz       
    26      0.594317  1 C  dxz               71      0.594317  2 C  dxz        
   100     -0.597094  3 H  pz               119      0.597094  4 H  pz         
 
 Vector  147  Occ=0.000000D+00  E= 8.778110D+00  Symmetry=ag
              MO Center= -5.4D-14, -5.9D-14,  2.7D-17, r^2= 2.4D+00
   Bfn.  Coefficient  Atom+Function         Bfn.  Coefficient  Atom+Function  
  ----- ------------  ---------------      ----- ------------  ---------------
     8      4.872179  1 C  py                53     -4.872179  2 C  py         
    37     -2.943983  1 C  fxxy              82      2.943983  2 C  fxxy       
    42     -2.710091  1 C  fyyy              87      2.710091  2 C  fyyy       
    44     -2.553532  1 C  fyzz              89      2.553532  2 C  fyzz       
     6     -2.346432  1 C  s                 51     -2.346432  2 C  s          
 
 Vector  148  Occ=0.000000D+00  E= 8.780791D+00  Symmetry=au
              MO Center= -1.6D-14, -2.5D-13, -1.3D-17, r^2= 2.7D+00
   Bfn.  Coefficient  Atom+Function         Bfn.  Coefficient  Atom+Function  
  ----- ------------  ---------------      ----- ------------  ---------------
    97      0.649766  3 H  pz               116     -0.649766  4 H  pz         
   135     -0.649766  5 H  pz               154      0.649766  6 H  pz         
    26      0.609718  1 C  dxz               71     -0.609718  2 C  dxz        
   100     -0.595467  3 H  pz               119      0.595467  4 H  pz         
   138      0.595467  5 H  pz               157     -0.595467  6 H  pz         
 
 Vector  149  Occ=0.000000D+00  E= 8.831903D+00  Symmetry=b1g
              MO Center= -2.3D-15, -2.1D-14,  4.5D-18, r^2= 2.7D+00
   Bfn.  Coefficient  Atom+Function         Bfn.  Coefficient  Atom+Function  
  ----- ------------  ---------------      ----- ------------  ---------------
    31      4.001706  1 C  dxy               76      4.001706  2 C  dxy        
    11     -1.795095  1 C  px                56      1.795095  2 C  px         
    92     -1.050426  3 H  s                111      1.050426  4 H  s          
   130      1.050426  5 H  s                149     -1.050426  6 H  s          
    93     -0.980745  3 H  s                112      0.980745  4 H  s          
 
 Vector  150  Occ=0.000000D+00  E= 8.904237D+00  Symmetry=b1u
              MO Center= -3.5D-14, -3.4D-15,  2.0D-17, r^2= 2.5D+00
   Bfn.  Coefficient  Atom+Function         Bfn.  Coefficient  Atom+Function  
  ----- ------------  ---------------      ----- ------------  ---------------
     9      3.838464  1 C  pz                54      3.838464  2 C  pz         
    45     -2.029076  1 C  fzzz              90     -2.029076  2 C  fzzz       
    43     -1.810532  1 C  fyyz              88     -1.810532  2 C  fyyz       
    38     -1.681845  1 C  fxxz              83     -1.681845  2 C  fxxz       
     5     -0.901410  1 C  pz                50     -0.901410  2 C  pz         
 
 Vector  151  Occ=0.000000D+00  E= 8.908388D+00  Symmetry=b2u
              MO Center=  2.3D-14,  5.7D-14, -1.9D-17, r^2= 2.5D+00
   Bfn.  Coefficient  Atom+Function         Bfn.  Coefficient  Atom+Function  
  ----- ------------  ---------------      ----- ------------  ---------------
     6      3.836383  1 C  s                  8      3.851676  1 C  py         
    51     -3.836383  2 C  s                 53      3.851676  2 C  py         
    27     -2.573072  1 C  dyy               72      2.573072  2 C  dyy        
    29     -1.576970  1 C  dzz               74      1.576970  2 C  dzz        
    14     -1.538684  1 C  s                 59      1.538684  2 C  s          
 
 Vector  152  Occ=0.000000D+00  E= 9.256984D+00  Symmetry=b1g
              MO Center= -2.8D-14, -2.1D-14,  3.4D-19, r^2= 1.7D+00
   Bfn.  Coefficient  Atom+Function         Bfn.  Coefficient  Atom+Function  
  ----- ------------  ---------------      ----- ------------  ---------------
     7      6.627957  1 C  px                25      6.625997  1 C  dxy        
    52     -6.627957  2 C  px                70      6.625997  2 C  dxy        
    41     -3.273466  1 C  fxzz              86      3.273466  2 C  fxzz       
    11     -2.381676  1 C  px                56      2.381676  2 C  px         
    39     -1.932866  1 C  fxyy              84      1.932866  2 C  fxyy       
 
 Vector  153  Occ=0.000000D+00  E= 9.262019D+00  Symmetry=b3g
              MO Center=  2.1D-15, -9.5D-15, -6.4D-17, r^2= 2.1D+00
   Bfn.  Coefficient  Atom+Function         Bfn.  Coefficient  Atom+Function  
  ----- ------------  ---------------      ----- ------------  ---------------
     9      8.572786  1 C  pz                54     -8.572786  2 C  pz         
    45     -4.422748  1 C  fzzz              90      4.422748  2 C  fzzz       
    43     -4.240564  1 C  fyyz              88      4.240564  2 C  fyyz       
    38     -3.988344  1 C  fxxz              83      3.988344  2 C  fxxz       
     5     -2.044179  1 C  pz                50      2.044179  2 C  pz         
 
 Vector  154  Occ=0.000000D+00  E= 9.262385D+00  Symmetry=b2u
              MO Center=  2.7D-15, -7.0D-14, -7.2D-17, r^2= 2.1D+00
   Bfn.  Coefficient  Atom+Function         Bfn.  Coefficient  Atom+Function  
  ----- ------------  ---------------      ----- ------------  ---------------
    27      9.353331  1 C  dyy               72     -9.353331  2 C  dyy        
    14     -7.973454  1 C  s                 59      7.973454  2 C  s          
    24      6.638521  1 C  dxx               69     -6.638521  2 C  dxx        
    12     -4.854533  1 C  py                57     -4.854533  2 C  py         
    37      4.512559  1 C  fxxy              82      4.512559  2 C  fxxy       
 
 Vector  155  Occ=0.000000D+00  E= 9.336521D+00  Symmetry=ag
              MO Center=  2.0D-15, -2.5D-14,  1.2D-17, r^2= 1.7D+00
   Bfn.  Coefficient  Atom+Function         Bfn.  Coefficient  Atom+Function  
  ----- ------------  ---------------      ----- ------------  ---------------
     6     11.560392  1 C  s                 51     11.560392  2 C  s          
    10      4.688218  1 C  s                 55      4.688218  2 C  s          
    27     -4.448792  1 C  dyy               72     -4.448792  2 C  dyy        
    29     -4.330886  1 C  dzz               74     -4.330886  2 C  dzz        
    24     -3.324766  1 C  dxx               69     -3.324766  2 C  dxx        
 
 Vector  156  Occ=0.000000D+00  E= 9.596049D+00  Symmetry=b3u
              MO Center=  4.3D-15,  7.3D-14, -3.9D-18, r^2= 1.5D+00
   Bfn.  Coefficient  Atom+Function         Bfn.  Coefficient  Atom+Function  
  ----- ------------  ---------------      ----- ------------  ---------------
     7      9.280499  1 C  px                52      9.280499  2 C  px         
    39     -6.350334  1 C  fxyy              84     -6.350334  2 C  fxyy       
    36     -6.162720  1 C  fxxx              81     -6.162720  2 C  fxxx       
    41     -5.194998  1 C  fxzz              86     -5.194998  2 C  fxzz       
     3     -2.681865  1 C  px                48     -2.681865  2 C  px         
 
 Vector  157  Occ=0.000000D+00  E= 9.679385D+00  Symmetry=ag
              MO Center= -1.1D-14, -8.2D-14, -8.3D-18, r^2= 1.7D+00
   Bfn.  Coefficient  Atom+Function         Bfn.  Coefficient  Atom+Function  
  ----- ------------  ---------------      ----- ------------  ---------------
     8     10.049870  1 C  py                53    -10.049870  2 C  py         
    37     -5.743884  1 C  fxxy              82      5.743884  2 C  fxxy       
    42     -5.280412  1 C  fyyy              44     -5.296431  1 C  fyzz       
    87      5.280412  2 C  fyyy              89      5.296431  2 C  fyzz       
     4     -2.466944  1 C  py                49      2.466944  2 C  py         
 
 Vector  158  Occ=0.000000D+00  E= 9.745083D+00  Symmetry=b2u
              MO Center=  4.7D-15,  6.0D-14, -8.7D-18, r^2= 2.0D+00
   Bfn.  Coefficient  Atom+Function         Bfn.  Coefficient  Atom+Function  
  ----- ------------  ---------------      ----- ------------  ---------------
     6      7.827949  1 C  s                 51     -7.827949  2 C  s          
     8      7.711933  1 C  py                53      7.711933  2 C  py         
    10      6.736380  1 C  s                 55     -6.736380  2 C  s          
    12     -5.592838  1 C  py                57     -5.592838  2 C  py         
    44     -3.434850  1 C  fyzz              89     -3.434850  2 C  fyzz       
 
 Vector  159  Occ=0.000000D+00  E= 1.011033D+01  Symmetry=b3u
              MO Center=  2.2D-13, -5.5D-14, -1.2D-16, r^2= 2.6D+00
   Bfn.  Coefficient  Atom+Function         Bfn.  Coefficient  Atom+Function  
  ----- ------------  ---------------      ----- ------------  ---------------
     7      5.842171  1 C  px                52      5.842171  2 C  px         
    25      4.694875  1 C  dxy               70     -4.694875  2 C  dxy        
    98      2.557599  3 H  px               117      2.557599  4 H  px         
   136      2.557599  5 H  px               155      2.557599  6 H  px         
    41     -1.774431  1 C  fxzz              86     -1.774431  2 C  fxzz       
 
 Vector  160  Occ=0.000000D+00  E= 1.021535D+01  Symmetry=b1g
              MO Center=  5.3D-14, -8.1D-14, -1.4D-16, r^2= 1.3D+00
   Bfn.  Coefficient  Atom+Function         Bfn.  Coefficient  Atom+Function  
  ----- ------------  ---------------      ----- ------------  ---------------
     7      9.379019  1 C  px                52     -9.379019  2 C  px         
    39     -6.474445  1 C  fxyy              84      6.474445  2 C  fxyy       
    36     -6.381955  1 C  fxxx              81      6.381955  2 C  fxxx       
    31      5.920066  1 C  dxy               76      5.920066  2 C  dxy        
    41     -4.790293  1 C  fxzz              86      4.790293  2 C  fxzz       
 
 Vector  161  Occ=0.000000D+00  E= 1.037453D+01  Symmetry=ag
              MO Center= -2.1D-13, -2.9D-13,  1.1D-18, r^2= 2.5D+00
   Bfn.  Coefficient  Atom+Function         Bfn.  Coefficient  Atom+Function  
  ----- ------------  ---------------      ----- ------------  ---------------
     8      5.038472  1 C  py                53     -5.038472  2 C  py         
     6      3.596451  1 C  s                 51      3.596451  2 C  s          
    24      3.214422  1 C  dxx               69      3.214422  2 C  dxx        
    98      2.828126  3 H  px               117     -2.828126  4 H  px         
   136      2.828126  5 H  px               155     -2.828126  6 H  px         
 
 Vector  162  Occ=0.000000D+00  E= 1.043556D+01  Symmetry=b2u
              MO Center= -6.6D-14, -9.0D-13,  2.7D-17, r^2= 1.9D+00
   Bfn.  Coefficient  Atom+Function         Bfn.  Coefficient  Atom+Function  
  ----- ------------  ---------------      ----- ------------  ---------------
    37     10.130137  1 C  fxxy              82     10.130137  2 C  fxxy       
     6      5.928869  1 C  s                 51     -5.928869  2 C  s          
    24      4.783056  1 C  dxx               69     -4.783056  2 C  dxx        
    10     -4.537998  1 C  s                 55      4.537998  2 C  s          
    42      4.219900  1 C  fyyy              87      4.219900  2 C  fyyy       
 
 Vector  163  Occ=0.000000D+00  E= 1.061235D+01  Symmetry=b2u
              MO Center= -5.5D-15,  1.0D-12, -3.2D-17, r^2= 2.1D+00
   Bfn.  Coefficient  Atom+Function         Bfn.  Coefficient  Atom+Function  
  ----- ------------  ---------------      ----- ------------  ---------------
     8      7.970907  1 C  py                53      7.970907  2 C  py         
    44     -3.321902  1 C  fyzz              89     -3.321902  2 C  fyzz       
    24      3.277105  1 C  dxx               69     -3.277105  2 C  dxx        
    42     -3.205815  1 C  fyyy              87     -3.205815  2 C  fyyy       
    12     -2.813261  1 C  py                57     -2.813261  2 C  py         
 
 Vector  164  Occ=0.000000D+00  E= 1.097508D+01  Symmetry=b1g
              MO Center= -2.8D-14,  7.5D-14,  5.7D-18, r^2= 2.5D+00
   Bfn.  Coefficient  Atom+Function         Bfn.  Coefficient  Atom+Function  
  ----- ------------  ---------------      ----- ------------  ---------------
    25      9.227760  1 C  dxy               70      9.227760  2 C  dxy        
     7      8.963411  1 C  px                52     -8.963411  2 C  px         
    98      4.212293  3 H  px               117      4.212293  4 H  px         
   136     -4.212293  5 H  px               155     -4.212293  6 H  px         
    11     -4.015871  1 C  px                56      4.015871  2 C  px         
 
 Vector  165  Occ=0.000000D+00  E= 2.918918D+01  Symmetry=ag
              MO Center=  1.1D-16,  3.2D-15, -7.6D-20, r^2= 5.3D-01
   Bfn.  Coefficient  Atom+Function         Bfn.  Coefficient  Atom+Function  
  ----- ------------  ---------------      ----- ------------  ---------------
     6      2.907781  1 C  s                 51      2.907781  2 C  s          
     1     -1.424119  1 C  s                 46     -1.424119  2 C  s          
     2      1.141306  1 C  s                 47      1.141306  2 C  s          
    29     -0.831802  1 C  dzz               74     -0.831802  2 C  dzz        
    21     -0.787250  1 C  dyy               66     -0.787250  2 C  dyy        
 
 Vector  166  Occ=0.000000D+00  E= 2.919894D+01  Symmetry=b2u
              MO Center=  3.0D-16,  2.1D-15,  3.3D-19, r^2= 5.4D-01
   Bfn.  Coefficient  Atom+Function         Bfn.  Coefficient  Atom+Function  
  ----- ------------  ---------------      ----- ------------  ---------------
     6      3.438630  1 C  s                 51     -3.438630  2 C  s          
     1     -1.425060  1 C  s                 46      1.425060  2 C  s          
     2      1.138060  1 C  s                 47     -1.138060  2 C  s          
    29     -0.938037  1 C  dzz               74      0.938037  2 C  dzz        
    21     -0.834817  1 C  dyy               66      0.834817  2 C  dyy        
 

 center of mass
 --------------
 x =   0.00000000 y =   0.00000000 z =   0.00000000

 moments of inertia (a.u.)
 ------------------
          60.207373866826           0.000000000000           0.000000000000
           0.000000000000          12.305090334698           0.000000000000
           0.000000000000           0.000000000000          72.512464201524
 
     Multipole analysis of the density
     ---------------------------------
 
     L   x y z        total         alpha         beta         nuclear
     -   - - -        -----         -----         ----         -------
     0   0 0 0     -0.000000     -8.000000     -8.000000     16.000000
 
     1   1 0 0      0.000000      0.000000      0.000000      0.000000
     1   0 1 0      0.000000      0.000000      0.000000      0.000000
     1   0 0 1     -0.000000     -0.000000     -0.000000      0.000000
 
     2   2 0 0     -9.223644    -10.716597    -10.716597     12.209551
     2   1 1 0     -0.000000     -0.000000     -0.000000      0.000000
     2   1 0 1      0.000000      0.000000      0.000000      0.000000
     2   0 2 0     -9.182310    -25.046354    -25.046354     40.910399
     2   0 1 1      0.000000      0.000000      0.000000      0.000000
     2   0 0 2    -11.641246     -5.820623     -5.820623      0.000000
 

------------------------------------------------------------
EAF file 0: "./C2H4.aoints.00" size=1048576 bytes
------------------------------------------------------------
               write      read    awrite     aread      wait
               -----      ----    ------     -----      ----
     calls:        2         1         0         1         1
   data(b): 1.05e+06  5.24e+05  0.00e+00  5.24e+05
   time(s): 0.00e+00  0.00e+00  0.00e+00  0.00e+00  0.00e+00
rate(mb/s): 0.00e+00  0.00e+00
------------------------------------------------------------


 Parallel integral file used     331 records with       0 large values


 Task  times  cpu:        3.7s     wall:        5.5s
 
 
                                NWChem Input Module
                                -------------------
 
 
 Summary of allocated global arrays
-----------------------------------
  No active global arrays



                         GA Statistics for process    0
                         ------------------------------

       create   destroy   get      put      acc     scatter   gather  read&inc
calls:  200      200     3302     1573      715        0        0      146     
number of processes/call 2.67e+00 1.49e+00 3.66e+00 0.00e+00 0.00e+00
bytes total:             6.44e+07 6.18e+06 3.31e+07 0.00e+00 0.00e+00 1.17e+03
bytes remote:            5.65e+07 4.06e+06 2.81e+07 0.00e+00 0.00e+00 0.00e+00
Max memory consumed for GA by this process: 975496 bytes
 
MA_summarize_allocated_blocks: starting scan ...
MA_summarize_allocated_blocks: scan completed: 0 heap blocks, 0 stack blocks
MA usage statistics:

	allocation statistics:
					      heap	     stack
					      ----	     -----
	current number of blocks	         0	         0
	maximum number of blocks	        22	        57
	current total bytes		         0	         0
	maximum total bytes		  17432488	  22516904
	maximum total K-bytes		     17433	     22517
	maximum total M-bytes		        18	        23
 
 
                                     CITATION
                                     --------
                Please cite the following reference when publishing
                           results obtained with NWChem:
 
                 M. Valiev, E.J. Bylaska, N. Govind, K. Kowalski,
              T.P. Straatsma, H.J.J. van Dam, D. Wang, J. Nieplocha,
                        E. Apra, T.L. Windus, W.A. de Jong
                 "NWChem: a comprehensive and scalable open-source
                  solution for large scale molecular simulations"
                      Comput. Phys. Commun. 181, 1477 (2010)
                           doi:10.1016/j.cpc.2010.04.018
 
                                      AUTHORS
                                      -------
          E. Apra, E. J. Bylaska, W. A. de Jong, N. Govind, K. Kowalski,
       T. P. Straatsma, M. Valiev, H. J. J. van Dam, D. Wang, T. L. Windus,
        J. Hammond, J. Autschbach, K. Bhaskaran-Nair, J. Brabec, K. Lopata,
    S. A. Fischer, S. Krishnamoorthy, M. Jacquelin, W. Ma, M. Klemm, O. Villa,
      Y. Chen, V. Anisimov, F. Aquino, S. Hirata, M. T. Hackler, V. Konjkov,
            D. Mejia-Rodriguez, T. Risthaus, M. Malagoli, A. Marenich,
   A. Otero-de-la-Roza, J. Mullin, P. Nichols, R. Peverati, J. Pittner, Y. Zhao,
        P.-D. Fan, A. Fonari, M. J. Williamson, R. J. Harrison, J. R. Rehr,
      M. Dupuis, D. Silverstein, D. M. A. Smith, J. Nieplocha, V. Tipparaju,
    M. Krishnan, B. E. Van Kuiken, A. Vazquez-Mayagoitia, L. Jensen, M. Swart,
      Q. Wu, T. Van Voorhis, A. A. Auer, M. Nooijen, L. D. Crosby, E. Brown,
      G. Cisneros, G. I. Fann, H. Fruchtl, J. Garza, K. Hirao, R. A. Kendall,
      J. A. Nichols, K. Tsemekhman, K. Wolinski, J. Anchell, D. E. Bernholdt,
      P. Borowski, T. Clark, D. Clerc, H. Dachsel, M. J. O. Deegan, K. Dyall,
    D. Elwood, E. Glendening, M. Gutowski, A. C. Hess, J. Jaffe, B. G. Johnson,
     J. Ju, R. Kobayashi, R. Kutteh, Z. Lin, R. Littlefield, X. Long, B. Meng,
      T. Nakajima, S. Niu, L. Pollack, M. Rosing, K. Glaesemann, G. Sandrone,
      M. Stave, H. Taylor, G. Thomas, J. H. van Lenthe, A. T. Wong, Z. Zhang.

 Total times  cpu:        3.7s     wall:        5.7s
