 argument  1 = /storage/home/rabeet/work/nwc/hb6/nwtpss/C2H4-C2H4.nw
  NWChem w/ OpenMP: maximum threads =  1
                                         
                                         
 
 
              Northwest Computational Chemistry Package (NWChem) 6.8
              ------------------------------------------------------
 
 
                    Environmental Molecular Sciences Laboratory
                       Pacific Northwest National Laboratory
                                Richland, WA 99352
 
                              Copyright (c) 1994-2018
                       Pacific Northwest National Laboratory
                            Battelle Memorial Institute
 
             NWChem is an open-source computational chemistry package
                        distributed under the terms of the
                      Educational Community License (ECL) 2.0
             A copy of the license is included with this distribution
                              in the LICENSE.TXT file
 
                                  ACKNOWLEDGMENT
                                  --------------

            This software and its documentation were developed at the
            EMSL at Pacific Northwest National Laboratory, a multiprogram
            national laboratory, operated for the U.S. Department of Energy
            by Battelle under Contract Number DE-AC05-76RL01830. Support
            for this work was provided by the Department of Energy Office
            of Biological and Environmental Research, Office of Basic
            Energy Sciences, and the Office of Advanced Scientific Computing.


           Job information
           ---------------

    hostname        = r8n4.niserhpc.org
    program         = /home/rabeet/nwchem-6.8/bin/LINUX64/nwchem
    date            = Sun Oct 27 08:45:09 2019

    compiled        = Fri_Jun_28_18:24:12_2019
    source          = /home/rabeet/nwchem-6.8
    nwchem branch   = Development
    nwchem revision = N/A
    ga revision     = 5.6.5
    use scalapack   = T
    input           = /storage/home/rabeet/work/nwc/hb6/nwtpss/C2H4-C2H4.nw
    prefix          = C2H4-C2H4.
    data base       = ./C2H4-C2H4.db
    status          = startup
    nproc           =       16
    time left       =     -1s



           Memory information
           ------------------

    heap     =   13107194 doubles =    100.0 Mbytes
    stack    =   13107199 doubles =    100.0 Mbytes
    global   =   26214400 doubles =    200.0 Mbytes (distinct from heap & stack)
    total    =   52428793 doubles =    400.0 Mbytes
    verify   = yes
    hardfail = no 


           Directory information
           ---------------------
 
  0 permanent = .
  0 scratch   = .
 
 
 
 
                                NWChem Input Module
                                -------------------
 
 

 Scaling coordinates for geometry "geometry" by  1.889725989
 (inverse scale =  0.529177249)

 D2D symmetry detected

          ------
          auto-z
          ------
  autoz: The atoms group into disjoint clusters
 cluster   1:    1    2    3    4    5    6 
 cluster   2:    7    8    9   10   11   12 
 Connecting clusters   1   2 via atoms    3   10 r = 2.56
  autoz: regenerating connections with new bonds
  no constraints, skipping   0.000000000000000E+000
  no constraints, skipping   0.000000000000000E+000
 
 
                             Geometry "geometry" -> ""
                             -------------------------
 
 Output coordinates in angstroms (scale by  1.889725989 to convert to a.u.)
 
  No.       Tag          Charge          X              Y              Z
 ---- ---------------- ---------- -------------- -------------- --------------
    1 C                    6.0000     0.47261000     0.47261000    -1.85777000
    2 C                    6.0000    -0.47261000    -0.47261000    -1.85777000
    3 H                    1.0000     0.87437500     0.87437500    -0.93377000
    4 H                    1.0000     0.87163500     0.87163500    -2.78382000
    5 H                    1.0000    -0.87163500    -0.87163500    -2.78382000
    6 H                    1.0000    -0.87437500    -0.87437500    -0.93377000
    7 C                    6.0000    -0.47261000     0.47261000     1.85777000
    8 C                    6.0000     0.47261000    -0.47261000     1.85777000
    9 H                    1.0000    -0.87163500     0.87163500     2.78382000
   10 H                    1.0000    -0.87437500     0.87437500     0.93377000
   11 H                    1.0000     0.87437500    -0.87437500     0.93377000
   12 H                    1.0000     0.87163500    -0.87163500     2.78382000
 
      Atomic Mass 
      ----------- 
 
      C                 12.000000
      H                  1.007825
 

 Effective nuclear repulsion energy (a.u.)     102.0765998000

            Nuclear Dipole moment (a.u.) 
            ----------------------------
        X                 Y               Z
 ---------------- ---------------- ----------------
     0.0000000000    -0.0000000000    -0.0000000000
 
      Symmetry information
      --------------------
 
 Group name             D2d       
 Group number             32
 Group order               8
 No. of unique centers     3
 
      Symmetry unique atoms
 
     1    3    4
 


                                Z-matrix (autoz)
                                -------- 

 Units are Angstrom for bonds and degrees for angles
 
      Type          Name      I     J     K     L     M      Value
      ----------- --------  ----- ----- ----- ----- ----- ----------
    1 Stretch                  1     2                       1.33674
    2 Stretch                  1     3                       1.08471
    3 Stretch                  1     4                       1.08444
    4 Stretch                  2     5                       1.08444
    5 Stretch                  2     6                       1.08471
    6 Stretch                  3    10                       2.55848
    7 Stretch                  7     8                       1.33674
    8 Stretch                  7     9                       1.08444
    9 Stretch                  7    10                       1.08471
   10 Stretch                  8    11                       1.08471
   11 Stretch                  8    12                       1.08444
   12 Bend                     1     2     5               121.35685
   13 Bend                     1     2     6               121.58798
   14 Bend                     1     3    10               111.63092
   15 Bend                     2     1     3               121.58798
   16 Bend                     2     1     4               121.35685
   17 Bend                     3    10     7               111.63092
   18 Bend                     3     1     4               117.05516
   19 Bend                     5     2     6               117.05516
   20 Bend                     7     8    11               121.58798
   21 Bend                     7     8    12               121.35685
   22 Bend                     8     7     9               121.35685
   23 Bend                     8     7    10               121.58798
   24 Bend                     9     7    10               117.05516
   25 Bend                    11     8    12               117.05516
   26 Torsion                  1     3    10     7         133.03771
   27 Torsion                  2     1     3    10         -31.32753
   28 Torsion                  3    10     7     8         -31.32753
   29 Torsion                  3    10     7     9         148.67247
   30 Torsion                  3     1     2     5        -180.00000
   31 Torsion                  3     1     2     6           0.00000
   32 Torsion                  4     1     2     5           0.00000
   33 Torsion                  4     1     2     6         180.00000
   34 Torsion                  4     1     3    10         148.67247
   35 Torsion                  9     7     8    11        -180.00000
   36 Torsion                  9     7     8    12           0.00000
   37 Torsion                 10     7     8    11           0.00000
   38 Torsion                 10     7     8    12         180.00000
 
 
            XYZ format geometry
            -------------------
    12
 geometry
 C                     0.47261000     0.47261000    -1.85777000
 C                    -0.47261000    -0.47261000    -1.85777000
 H                     0.87437500     0.87437500    -0.93377000
 H                     0.87163500     0.87163500    -2.78382000
 H                    -0.87163500    -0.87163500    -2.78382000
 H                    -0.87437500    -0.87437500    -0.93377000
 C                    -0.47261000     0.47261000     1.85777000
 C                     0.47261000    -0.47261000     1.85777000
 H                    -0.87163500     0.87163500     2.78382000
 H                    -0.87437500     0.87437500     0.93377000
 H                     0.87437500    -0.87437500     0.93377000
 H                     0.87163500    -0.87163500     2.78382000
 
 ==============================================================================
                                internuclear distances
 ------------------------------------------------------------------------------
       center one      |      center two      | atomic units |  angstroms
 ------------------------------------------------------------------------------
    2 C                |   1 C                |     2.52608  |     1.33674
    3 H                |   1 C                |     2.04981  |     1.08471
    4 H                |   1 C                |     2.04929  |     1.08444
    5 H                |   2 C                |     2.04929  |     1.08444
    6 H                |   2 C                |     2.04981  |     1.08471
    8 C                |   7 C                |     2.52608  |     1.33674
    9 H                |   7 C                |     2.04929  |     1.08444
   10 H                |   7 C                |     2.04981  |     1.08471
   11 H                |   8 C                |     2.04981  |     1.08471
   12 H                |   8 C                |     2.04929  |     1.08444
 ------------------------------------------------------------------------------
                         number of included internuclear distances:         10
 ==============================================================================



 ==============================================================================
                                 internuclear angles
 ------------------------------------------------------------------------------
        center 1       |       center 2       |       center 3       |  degrees
 ------------------------------------------------------------------------------
    2 C                |   1 C                |   3 H                |   121.59
    2 C                |   1 C                |   4 H                |   121.36
    3 H                |   1 C                |   4 H                |   117.06
    1 C                |   2 C                |   5 H                |   121.36
    1 C                |   2 C                |   6 H                |   121.59
    5 H                |   2 C                |   6 H                |   117.06
    8 C                |   7 C                |   9 H                |   121.36
    8 C                |   7 C                |  10 H                |   121.59
    9 H                |   7 C                |  10 H                |   117.06
    7 C                |   8 C                |  11 H                |   121.59
    7 C                |   8 C                |  12 H                |   121.36
   11 H                |   8 C                |  12 H                |   117.06
 ------------------------------------------------------------------------------
                            number of included internuclear angles:         12
 ==============================================================================





 Summary of "ao basis" -> "" (cartesian)
 ------------------------------------------------------------------------------
       Tag                 Description            Shells   Functions and Types
 ---------------- ------------------------------  ------  ---------------------
 *                     6-311++G(3df,3pd)              on all atoms 


 
                                 NWChem DFT Module
                                 -----------------
 
 
                      Basis "ao basis" -> "ao basis" (cartesian)
                      -----
  C (Carbon)
  ----------
            Exponent  Coefficients 
       -------------- ---------------------------------------------------------
  1 S  4.56324000E+03  0.001967
  1 S  6.82024000E+02  0.015231
  1 S  1.54973000E+02  0.076127
  1 S  4.44553000E+01  0.260801
  1 S  1.30290000E+01  0.616462
  1 S  1.82773000E+00  0.221006
 
  2 S  2.09642000E+01  0.114660
  2 S  4.80331000E+00  0.919999
  2 S  1.45933000E+00 -0.003031
 
  3 P  2.09642000E+01  0.040249
  3 P  4.80331000E+00  0.237594
  3 P  1.45933000E+00  0.815854
 
  4 S  4.83456000E-01  1.000000
 
  5 P  4.83456000E-01  1.000000
 
  6 S  1.45585000E-01  1.000000
 
  7 P  1.45585000E-01  1.000000
 
  8 S  4.38000000E-02  1.000000
 
  9 P  4.38000000E-02  1.000000
 
 10 D  2.50400000E+00  1.000000
 
 11 D  6.26000000E-01  1.000000
 
 12 D  1.56500000E-01  1.000000
 
 13 F  8.00000000E-01  1.000000
 
  H (Hydrogen)
  ------------
            Exponent  Coefficients 
       -------------- ---------------------------------------------------------
  1 S  3.38650000E+01  0.025494
  1 S  5.09479000E+00  0.190373
  1 S  1.15879000E+00  0.852161
 
  2 S  3.25840000E-01  1.000000
 
  3 S  1.02741000E-01  1.000000
 
  4 S  3.60000000E-02  1.000000
 
  5 P  3.00000000E+00  1.000000
 
  6 P  7.50000000E-01  1.000000
 
  7 P  1.87500000E-01  1.000000
 
  8 D  1.00000000E+00  1.000000
 


 Summary of "ao basis" -> "ao basis" (cartesian)
 ------------------------------------------------------------------------------
       Tag                 Description            Shells   Functions and Types
 ---------------- ------------------------------  ------  ---------------------
 C                     6-311++G(3df,3pd)            13       45   5s4p3d1f
 H                     6-311++G(3df,3pd)             8       19   4s3p1d




 Summary of "ao basis" -> "ao basis" (cartesian)
 ------------------------------------------------------------------------------
       Tag                 Description            Shells   Functions and Types
 ---------------- ------------------------------  ------  ---------------------
 C                     6-311++G(3df,3pd)            13       45   5s4p3d1f
 H                     6-311++G(3df,3pd)             8       19   4s3p1d


      Symmetry analysis of basis
      --------------------------
 
        a1         59
        a2         24
        b1         24
        b2         59
        e         166
 
  Caching 1-el integrals 
 
            General Information
            -------------------
          SCF calculation type: DFT
          Wavefunction type:  closed shell.
          No. of atoms     :    12
          No. of electrons :    32
           Alpha electrons :    16
            Beta electrons :    16
          Charge           :     0
          Spin multiplicity:     1
          Use of symmetry is: on ; symmetry adaption is: on 
          Maximum number of iterations: ***
          AO basis - number of functions:   332
                     number of shells:   116
          Convergence on energy requested:  1.00D-06
          Convergence on density requested:  1.00D-05
          Convergence on gradient requested:  5.00D-04
 
              XC Information
              --------------
                  TPSS metaGGA Exchange Functional  1.000          
             TPSS03 metaGGA Correlation Functional  1.000          
 
             Grid Information
             ----------------
          Grid used for XC integration:  medium    
          Radial quadrature: Mura-Knowles        
          Angular quadrature: Lebedev. 
          Tag              B.-S. Rad. Rad. Pts. Rad. Cut. Ang. Pts.
          ---              ---------- --------- --------- ---------
          C                   0.70       49          16.0       434
          H                   0.35       45          17.0       434
          Grid pruning is: on 
          Number of quadrature shells:   139
          Spatial weights used:  Erf1
 
          Convergence Information
          -----------------------
          Convergence aids based upon iterative change in 
          total energy or number of iterations. 
          Levelshifting, if invoked, occurs when the 
          HOMO/LUMO gap drops below (HL_TOL):  1.00D-02
          DIIS, if invoked, will attempt to extrapolate 
          using up to (NFOCK): 10 stored Fock matrices.

                    Damping( 0%)  Levelshifting(0.5)       DIIS
                  --------------- ------------------- ---------------
          dE  on:    start            ASAP                start   
          dE off:    2 iters        *** iters           *** iters 

 
      Screening Tolerance Information
      -------------------------------
          Density screening/tol_rho:  1.00D-10
          AO Gaussian exp screening on grid/accAOfunc:  14
          CD Gaussian exp screening on grid/accCDfunc:  20
          XC Gaussian exp screening on grid/accXCfunc:  20
          Schwarz screening/accCoul:  1.00D-08

{    0,    0}:  On entry to 
PDSTEDC parameter number   10 had an illegal value 
{    0,    1}:  On entry to 
PDSTEDC parameter number   10 had an illegal value 
{    1,    0}:  On entry to 
PDSTEDC parameter number   10 had an illegal value 
{    1,    1}:  On entry to 
PDSTEDC parameter number   10 had an illegal value 
{    1,    2}:  On entry to 
PDSTEDC parameter number   10 had an illegal value 
{    0,    4}:  On entry to 
PDSTEDC parameter number   10 had an illegal value 
{    0,    2}:  On entry to 
PDSTEDC parameter number   10 had an illegal value 
{    1,    3}:  On entry to 
PDSTEDC parameter number   10 had an illegal value 
{    1,    4}:  On entry to 
PDSTEDC parameter number   10 had an illegal value 
{    0,    3}:  On entry to 
PDSTEDC parameter number   10 had an illegal value 
